n -t * -s 0  -x 173 -y 57 -Z 0 -z 30  -v circle -c green
n -t * -s 1  -x 336 -y 306 -Z 0 -z 30  -v circle -c green
n -t * -s 2  -x 484 -y 332 -Z 0 -z 30  -v circle -c green
n -t * -s 3  -x 422 -y 154 -Z 0 -z 30  -v circle -c green
n -t * -s 4  -x 128 -y 198 -Z 0 -z 30  -v circle -c green
n -t * -s 5  -x 189 -y 275 -Z 0 -z 30  -v circle -c green
n -t * -s 6  -x 178 -y 206 -Z 0 -z 30  -v circle -c green
n -t * -s 7  -x 307 -y 270 -Z 0 -z 30  -v circle -c green
n -t * -s 8  -x 366 -y 36 -Z 0 -z 30  -v circle -c green
n -t * -s 9  -x 44 -y 200 -Z 0 -z 30  -v circle -c green
n -t * -s 10  -x 203 -y 261 -Z 0 -z 30  -v circle -c green
V -t * -v 1.0a5 -a 0
W -t * -x 500 -y 400
A -t * -n 1 -p 0 -o 0x7fffffff -c 30 -a 1
A -t * -h 1 -m 1073741823 -s 0
+ -t 0.600000000 -s 5 -d -1 -p cbr -e 512 -c 2 -a 0 -i 0 -k AGT 
- -t 0.600000000 -s 5 -d -1 -p cbr -e 512 -c 2 -a 0 -i 0 -k AGT
h -t 0.600000000 -s 5 -d -1 -p cbr -e 512 -c 2 -a 0 -i 0 -k AGT
+ -t 0.600000000 -s 5 -d -1 -p AODV -e 48 -c 2 -a 0 -i 0 -k RTR 
- -t 0.600000000 -s 5 -d -1 -p AODV -e 48 -c 2 -a 0 -i 0 -k RTR
h -t 0.600000000 -s 5 -d -1 -p AODV -e 48 -c 2 -a 0 -i 0 -k RTR
r -t 0.601408066 -s 10 -d -1 -p AODV -e 48 -c 2 -a 0 -i 0 -k RTR
r -t 0.601408233 -s 6 -d -1 -p AODV -e 48 -c 2 -a 0 -i 0 -k RTR
r -t 0.601408327 -s 4 -d -1 -p AODV -e 48 -c 2 -a 0 -i 0 -k RTR
r -t 0.601408394 -s 7 -d -1 -p AODV -e 48 -c 2 -a 0 -i 0 -k RTR
r -t 0.601408501 -s 1 -d -1 -p AODV -e 48 -c 2 -a 0 -i 0 -k RTR
r -t 0.601408544 -s 9 -d -1 -p AODV -e 48 -c 2 -a 0 -i 0 -k RTR
r -t 0.601408729 -s 0 -d -1 -p AODV -e 48 -c 2 -a 0 -i 0 -k RTR
+ -t 0.601550113 -s 10 -d -1 -p AODV -e 48 -c 2 -a 0 -i 0 -k RTR 
- -t 0.601550113 -s 10 -d -1 -p AODV -e 48 -c 2 -a 0 -i 0 -k RTR
h -t 0.601550113 -s 10 -d -1 -p AODV -e 48 -c 2 -a 0 -i 0 -k RTR
+ -t 0.602289460 -s 6 -d -1 -p AODV -e 48 -c 2 -a 0 -i 0 -k RTR 
- -t 0.602289460 -s 6 -d -1 -p AODV -e 48 -c 2 -a 0 -i 0 -k RTR
h -t 0.602289460 -s 6 -d -1 -p AODV -e 48 -c 2 -a 0 -i 0 -k RTR
r -t 0.602858179 -s 5 -d -1 -p AODV -e 48 -c 2 -a 0 -i 0 -k RTR
r -t 0.602858314 -s 6 -d -1 -p AODV -e 48 -c 2 -a 0 -i 0 -k RTR
r -t 0.602858439 -s 4 -d -1 -p AODV -e 48 -c 2 -a 0 -i 0 -k RTR
r -t 0.602858461 -s 7 -d -1 -p AODV -e 48 -c 2 -a 0 -i 0 -k RTR
r -t 0.602858581 -s 1 -d -1 -p AODV -e 48 -c 2 -a 0 -i 0 -k RTR
r -t 0.602858680 -s 9 -d -1 -p AODV -e 48 -c 2 -a 0 -i 0 -k RTR
r -t 0.602858800 -s 0 -d -1 -p AODV -e 48 -c 2 -a 0 -i 0 -k RTR
r -t 0.602858925 -s 3 -d -1 -p AODV -e 48 -c 2 -a 0 -i 0 -k RTR
+ -t 0.603754746 -s 0 -d -1 -p AODV -e 48 -c 2 -a 0 -i 0 -k RTR 
- -t 0.603754746 -s 0 -d -1 -p AODV -e 48 -c 2 -a 0 -i 0 -k RTR
h -t 0.603754746 -s 0 -d -1 -p AODV -e 48 -c 2 -a 0 -i 0 -k RTR
r -t 0.604016483 -s 4 -d -1 -p AODV -e 48 -c 2 -a 0 -i 0 -k RTR
r -t 0.604016515 -s 10 -d -1 -p AODV -e 48 -c 2 -a 0 -i 0 -k RTR
r -t 0.604016547 -s 5 -d -1 -p AODV -e 48 -c 2 -a 0 -i 0 -k RTR
r -t 0.604016761 -s 9 -d -1 -p AODV -e 48 -c 2 -a 0 -i 0 -k RTR
r -t 0.604016794 -s 7 -d -1 -p AODV -e 48 -c 2 -a 0 -i 0 -k RTR
r -t 0.604016811 -s 0 -d -1 -p AODV -e 48 -c 2 -a 0 -i 0 -k RTR
r -t 0.604016937 -s 1 -d -1 -p AODV -e 48 -c 2 -a 0 -i 0 -k RTR
r -t 0.604017146 -s 3 -d -1 -p AODV -e 48 -c 2 -a 0 -i 0 -k RTR
+ -t 0.604096000 -s 5 -d -1 -p cbr -e 512 -c 2 -a 0 -i 1 -k AGT 
- -t 0.604096000 -s 5 -d -1 -p cbr -e 512 -c 2 -a 0 -i 1 -k AGT
h -t 0.604096000 -s 5 -d -1 -p cbr -e 512 -c 2 -a 0 -i 1 -k AGT
+ -t 0.604500379 -s 3 -d -1 -p AODV -e 48 -c 2 -a 0 -i 0 -k RTR 
- -t 0.604500379 -s 3 -d -1 -p AODV -e 48 -c 2 -a 0 -i 0 -k RTR
h -t 0.604500379 -s 3 -d -1 -p AODV -e 48 -c 2 -a 0 -i 0 -k RTR
+ -t 0.604538118 -s 1 -d -1 -p AODV -e 48 -c 2 -a 0 -i 0 -k RTR 
- -t 0.604538118 -s 1 -d -1 -p AODV -e 48 -c 2 -a 0 -i 0 -k RTR
h -t 0.604538118 -s 1 -d -1 -p AODV -e 48 -c 2 -a 0 -i 0 -k RTR
r -t 0.605455304 -s 4 -d -1 -p AODV -e 48 -c 2 -a 0 -i 0 -k RTR
r -t 0.605455308 -s 6 -d -1 -p AODV -e 48 -c 2 -a 0 -i 0 -k RTR
r -t 0.605455453 -s 9 -d -1 -p AODV -e 48 -c 2 -a 0 -i 0 -k RTR
r -t 0.605455458 -s 8 -d -1 -p AODV -e 48 -c 2 -a 0 -i 0 -k RTR
r -t 0.605455498 -s 10 -d -1 -p AODV -e 48 -c 2 -a 0 -i 0 -k RTR
r -t 0.605455540 -s 5 -d -1 -p AODV -e 48 -c 2 -a 0 -i 0 -k RTR
+ -t 0.605820061 -s 4 -d -1 -p AODV -e 48 -c 2 -a 0 -i 0 -k RTR 
- -t 0.605820061 -s 4 -d -1 -p AODV -e 48 -c 2 -a 0 -i 0 -k RTR
h -t 0.605820061 -s 4 -d -1 -p AODV -e 48 -c 2 -a 0 -i 0 -k RTR
r -t 0.606957957 -s 7 -d -1 -p AODV -e 48 -c 2 -a 0 -i 0 -k RTR
r -t 0.606958271 -s 10 -d -1 -p AODV -e 48 -c 2 -a 0 -i 0 -k RTR
r -t 0.606958304 -s 5 -d -1 -p AODV -e 48 -c 2 -a 0 -i 0 -k RTR
r -t 0.606958304 -s 2 -d -1 -p AODV -e 48 -c 2 -a 0 -i 0 -k RTR
+ -t 0.606958304 -s 2 -d 1 -p AODV -e 44 -c 2 -a 0 -i 0 -k RTR 
- -t 0.606958304 -s 2 -d 1 -p AODV -e 44 -c 2 -a 0 -i 0 -k RTR
h -t 0.606958304 -s 2 -d 1 -p AODV -e 44 -c 2 -a 0 -i 0 -k RTR
r -t 0.606958385 -s 3 -d -1 -p AODV -e 48 -c 2 -a 0 -i 0 -k RTR
r -t 0.606958426 -s 6 -d -1 -p AODV -e 48 -c 2 -a 0 -i 0 -k RTR
r -t 0.606958584 -s 4 -d -1 -p AODV -e 48 -c 2 -a 0 -i 0 -k RTR
+ -t 0.607203511 -s 8 -d -1 -p AODV -e 48 -c 2 -a 0 -i 0 -k RTR 
- -t 0.607203511 -s 8 -d -1 -p AODV -e 48 -c 2 -a 0 -i 0 -k RTR
h -t 0.607203511 -s 8 -d -1 -p AODV -e 48 -c 2 -a 0 -i 0 -k RTR
r -t 0.607976820 -s 8 -d -1 -p AODV -e 48 -c 2 -a 0 -i 0 -k RTR
r -t 0.607976930 -s 7 -d -1 -p AODV -e 48 -c 2 -a 0 -i 0 -k RTR
r -t 0.607976967 -s 1 -d -1 -p AODV -e 48 -c 2 -a 0 -i 0 -k RTR
r -t 0.607977013 -s 2 -d -1 -p AODV -e 48 -c 2 -a 0 -i 0 -k RTR
r -t 0.607977198 -s 10 -d -1 -p AODV -e 48 -c 2 -a 0 -i 0 -k RTR
r -t 0.607977217 -s 6 -d -1 -p AODV -e 48 -c 2 -a 0 -i 0 -k RTR
+ -t 0.608192000 -s 5 -d -1 -p cbr -e 512 -c 2 -a 0 -i 2 -k AGT 
- -t 0.608192000 -s 5 -d -1 -p cbr -e 512 -c 2 -a 0 -i 2 -k AGT
h -t 0.608192000 -s 5 -d -1 -p cbr -e 512 -c 2 -a 0 -i 2 -k AGT
+ -t 0.609399948 -s 7 -d -1 -p AODV -e 48 -c 2 -a 0 -i 0 -k RTR 
- -t 0.609399948 -s 7 -d -1 -p AODV -e 48 -c 2 -a 0 -i 0 -k RTR
h -t 0.609399948 -s 7 -d -1 -p AODV -e 48 -c 2 -a 0 -i 0 -k RTR
+ -t 0.609573305 -s 9 -d -1 -p AODV -e 48 -c 2 -a 0 -i 0 -k RTR 
- -t 0.609573305 -s 9 -d -1 -p AODV -e 48 -c 2 -a 0 -i 0 -k RTR
h -t 0.609573305 -s 9 -d -1 -p AODV -e 48 -c 2 -a 0 -i 0 -k RTR
+ -t 0.612288000 -s 5 -d -1 -p cbr -e 512 -c 2 -a 0 -i 3 -k AGT 
- -t 0.612288000 -s 5 -d -1 -p cbr -e 512 -c 2 -a 0 -i 3 -k AGT
h -t 0.612288000 -s 5 -d -1 -p cbr -e 512 -c 2 -a 0 -i 3 -k AGT
+ -t 0.612348520 -s 1 -d 5 -p AODV -e 44 -c 2 -a 0 -i 0 -k RTR 
- -t 0.612348520 -s 1 -d 5 -p AODV -e 44 -c 2 -a 0 -i 0 -k RTR
h -t 0.612348520 -s 1 -d 5 -p AODV -e 44 -c 2 -a 0 -i 0 -k RTR
r -t 0.613651455 -s 6 -d -1 -p AODV -e 48 -c 2 -a 0 -i 0 -k RTR
r -t 0.613651567 -s 9 -d -1 -p AODV -e 48 -c 2 -a 0 -i 0 -k RTR
r -t 0.613651613 -s 10 -d -1 -p AODV -e 48 -c 2 -a 0 -i 0 -k RTR
r -t 0.613651614 -s 5 -d -1 -p AODV -e 48 -c 2 -a 0 -i 0 -k RTR
r -t 0.613651780 -s 0 -d -1 -p AODV -e 48 -c 2 -a 0 -i 0 -k RTR
r -t 0.613651930 -s 7 -d -1 -p AODV -e 48 -c 2 -a 0 -i 0 -k RTR
r -t 0.613652068 -s 1 -d -1 -p AODV -e 48 -c 2 -a 0 -i 0 -k RTR
r -t 0.614729847 -s 4 -d -1 -p AODV -e 48 -c 2 -a 0 -i 0 -k RTR
r -t 0.614730014 -s 6 -d -1 -p AODV -e 48 -c 2 -a 0 -i 0 -k RTR
r -t 0.614730111 -s 5 -d -1 -p AODV -e 48 -c 2 -a 0 -i 0 -k RTR
r -t 0.614730134 -s 10 -d -1 -p AODV -e 48 -c 2 -a 0 -i 0 -k RTR
r -t 0.614730209 -s 0 -d -1 -p AODV -e 48 -c 2 -a 0 -i 0 -k RTR
r -t 0.616012628 -s 1 -d -1 -p AODV -e 48 -c 2 -a 0 -i 0 -k RTR
r -t 0.616012822 -s 10 -d -1 -p AODV -e 48 -c 2 -a 0 -i 0 -k RTR
r -t 0.616012868 -s 5 -d -1 -p AODV -e 48 -c 2 -a 0 -i 0 -k RTR
r -t 0.616012954 -s 6 -d -1 -p AODV -e 48 -c 2 -a 0 -i 0 -k RTR
r -t 0.616013018 -s 3 -d -1 -p AODV -e 48 -c 2 -a 0 -i 0 -k RTR
r -t 0.616013099 -s 2 -d -1 -p AODV -e 48 -c 2 -a 0 -i 0 -k RTR
r -t 0.616013117 -s 4 -d -1 -p AODV -e 48 -c 2 -a 0 -i 0 -k RTR
r -t 0.616013278 -s 8 -d -1 -p AODV -e 48 -c 2 -a 0 -i 0 -k RTR
+ -t 0.616384000 -s 5 -d -1 -p cbr -e 512 -c 2 -a 0 -i 4 -k AGT 
- -t 0.616384000 -s 5 -d -1 -p cbr -e 512 -c 2 -a 0 -i 4 -k AGT
h -t 0.616384000 -s 5 -d -1 -p cbr -e 512 -c 2 -a 0 -i 4 -k AGT
r -t 0.616991714 -s 3 -d -1 -p AODV -e 48 -c 2 -a 0 -i 0 -k RTR
r -t 0.616991925 -s 0 -d -1 -p AODV -e 48 -c 2 -a 0 -i 0 -k RTR
r -t 0.616992083 -s 7 -d -1 -p AODV -e 48 -c 2 -a 0 -i 0 -k RTR
+ -t 0.620480000 -s 5 -d -1 -p cbr -e 512 -c 2 -a 0 -i 5 -k AGT 
- -t 0.620480000 -s 5 -d -1 -p cbr -e 512 -c 2 -a 0 -i 5 -k AGT
h -t 0.620480000 -s 5 -d -1 -p cbr -e 512 -c 2 -a 0 -i 5 -k AGT
+ -t 0.621792689 -s 5 -d 1 -p cbr -e 532 -c 2 -a 0 -i 0 -k RTR 
- -t 0.621792689 -s 5 -d 1 -p cbr -e 532 -c 2 -a 0 -i 0 -k RTR
h -t 0.621792689 -s 5 -d 1 -p cbr -e 532 -c 2 -a 0 -i 0 -k RTR
+ -t 0.624576000 -s 5 -d -1 -p cbr -e 512 -c 2 -a 0 -i 6 -k AGT 
- -t 0.624576000 -s 5 -d -1 -p cbr -e 512 -c 2 -a 0 -i 6 -k AGT
h -t 0.624576000 -s 5 -d -1 -p cbr -e 512 -c 2 -a 0 -i 6 -k AGT
+ -t 0.624576000 -s 5 -d 1 -p cbr -e 532 -c 2 -a 0 -i 6 -k RTR 
- -t 0.624576000 -s 5 -d 1 -p cbr -e 532 -c 2 -a 0 -i 6 -k RTR
h -t 0.624576000 -s 5 -d 1 -p cbr -e 532 -c 2 -a 0 -i 6 -k RTR
+ -t 0.627834192 -s 1 -d 2 -p cbr -e 532 -c 2 -a 0 -i 0 -k RTR 
- -t 0.627834192 -s 1 -d 2 -p cbr -e 532 -c 2 -a 0 -i 0 -k RTR
h -t 0.627834192 -s 1 -d 2 -p cbr -e 532 -c 2 -a 0 -i 0 -k RTR
+ -t 0.628672000 -s 5 -d -1 -p cbr -e 512 -c 2 -a 0 -i 7 -k AGT 
- -t 0.628672000 -s 5 -d -1 -p cbr -e 512 -c 2 -a 0 -i 7 -k AGT
h -t 0.628672000 -s 5 -d -1 -p cbr -e 512 -c 2 -a 0 -i 7 -k AGT
+ -t 0.628672000 -s 5 -d 1 -p cbr -e 532 -c 2 -a 0 -i 7 -k RTR 
- -t 0.628672000 -s 5 -d 1 -p cbr -e 532 -c 2 -a 0 -i 7 -k RTR
h -t 0.628672000 -s 5 -d 1 -p cbr -e 532 -c 2 -a 0 -i 7 -k RTR
+ -t 0.631792689 -s 5 -d 1 -p cbr -e 532 -c 2 -a 0 -i 1 -k RTR 
- -t 0.631792689 -s 5 -d 1 -p cbr -e 532 -c 2 -a 0 -i 1 -k RTR
h -t 0.631792689 -s 5 -d 1 -p cbr -e 532 -c 2 -a 0 -i 1 -k RTR
+ -t 0.632768000 -s 5 -d -1 -p cbr -e 512 -c 2 -a 0 -i 8 -k AGT 
- -t 0.632768000 -s 5 -d -1 -p cbr -e 512 -c 2 -a 0 -i 8 -k AGT
h -t 0.632768000 -s 5 -d -1 -p cbr -e 512 -c 2 -a 0 -i 8 -k AGT
+ -t 0.632768000 -s 5 -d 1 -p cbr -e 532 -c 2 -a 0 -i 8 -k RTR 
- -t 0.632768000 -s 5 -d 1 -p cbr -e 532 -c 2 -a 0 -i 8 -k RTR
h -t 0.632768000 -s 5 -d 1 -p cbr -e 532 -c 2 -a 0 -i 8 -k RTR
r -t 0.633695694 -s 2 -d 2 -p cbr -e 532 -c 2 -a 0 -i 0 -k AGT
+ -t 0.636864000 -s 5 -d -1 -p cbr -e 512 -c 2 -a 0 -i 9 -k AGT 
- -t 0.636864000 -s 5 -d -1 -p cbr -e 512 -c 2 -a 0 -i 9 -k AGT
h -t 0.636864000 -s 5 -d -1 -p cbr -e 512 -c 2 -a 0 -i 9 -k AGT
+ -t 0.636864000 -s 5 -d 1 -p cbr -e 532 -c 2 -a 0 -i 9 -k RTR 
- -t 0.636864000 -s 5 -d 1 -p cbr -e 532 -c 2 -a 0 -i 9 -k RTR
h -t 0.636864000 -s 5 -d 1 -p cbr -e 532 -c 2 -a 0 -i 9 -k RTR
+ -t 0.640262198 -s 1 -d 2 -p cbr -e 532 -c 2 -a 0 -i 6 -k RTR 
- -t 0.640262198 -s 1 -d 2 -p cbr -e 532 -c 2 -a 0 -i 6 -k RTR
h -t 0.640262198 -s 1 -d 2 -p cbr -e 532 -c 2 -a 0 -i 6 -k RTR
+ -t 0.640960000 -s 5 -d -1 -p cbr -e 512 -c 2 -a 0 -i 10 -k AGT 
- -t 0.640960000 -s 5 -d -1 -p cbr -e 512 -c 2 -a 0 -i 10 -k AGT
h -t 0.640960000 -s 5 -d -1 -p cbr -e 512 -c 2 -a 0 -i 10 -k AGT
+ -t 0.640960000 -s 5 -d 1 -p cbr -e 532 -c 2 -a 0 -i 10 -k RTR 
- -t 0.640960000 -s 5 -d 1 -p cbr -e 532 -c 2 -a 0 -i 10 -k RTR
h -t 0.640960000 -s 5 -d 1 -p cbr -e 532 -c 2 -a 0 -i 10 -k RTR
+ -t 0.641792689 -s 5 -d 1 -p cbr -e 532 -c 2 -a 0 -i 2 -k RTR 
- -t 0.641792689 -s 5 -d 1 -p cbr -e 532 -c 2 -a 0 -i 2 -k RTR
h -t 0.641792689 -s 5 -d 1 -p cbr -e 532 -c 2 -a 0 -i 2 -k RTR
+ -t 0.645056000 -s 5 -d -1 -p cbr -e 512 -c 2 -a 0 -i 11 -k AGT 
- -t 0.645056000 -s 5 -d -1 -p cbr -e 512 -c 2 -a 0 -i 11 -k AGT
h -t 0.645056000 -s 5 -d -1 -p cbr -e 512 -c 2 -a 0 -i 11 -k AGT
+ -t 0.645056000 -s 5 -d 1 -p cbr -e 532 -c 2 -a 0 -i 11 -k RTR 
- -t 0.645056000 -s 5 -d 1 -p cbr -e 532 -c 2 -a 0 -i 11 -k RTR
h -t 0.645056000 -s 5 -d 1 -p cbr -e 532 -c 2 -a 0 -i 11 -k RTR
r -t 0.646223701 -s 2 -d 2 -p cbr -e 532 -c 2 -a 0 -i 6 -k AGT
+ -t 0.649152000 -s 5 -d -1 -p cbr -e 512 -c 2 -a 0 -i 12 -k AGT 
- -t 0.649152000 -s 5 -d -1 -p cbr -e 512 -c 2 -a 0 -i 12 -k AGT
h -t 0.649152000 -s 5 -d -1 -p cbr -e 512 -c 2 -a 0 -i 12 -k AGT
+ -t 0.649152000 -s 5 -d 1 -p cbr -e 532 -c 2 -a 0 -i 12 -k RTR 
- -t 0.649152000 -s 5 -d 1 -p cbr -e 532 -c 2 -a 0 -i 12 -k RTR
h -t 0.649152000 -s 5 -d 1 -p cbr -e 532 -c 2 -a 0 -i 12 -k RTR
+ -t 0.651792689 -s 5 -d 1 -p cbr -e 532 -c 2 -a 0 -i 3 -k RTR 
- -t 0.651792689 -s 5 -d 1 -p cbr -e 532 -c 2 -a 0 -i 3 -k RTR
h -t 0.651792689 -s 5 -d 1 -p cbr -e 532 -c 2 -a 0 -i 3 -k RTR
+ -t 0.652750205 -s 1 -d 2 -p cbr -e 532 -c 2 -a 0 -i 7 -k RTR 
- -t 0.652750205 -s 1 -d 2 -p cbr -e 532 -c 2 -a 0 -i 7 -k RTR
h -t 0.652750205 -s 1 -d 2 -p cbr -e 532 -c 2 -a 0 -i 7 -k RTR
+ -t 0.653248000 -s 5 -d -1 -p cbr -e 512 -c 2 -a 0 -i 13 -k AGT 
- -t 0.653248000 -s 5 -d -1 -p cbr -e 512 -c 2 -a 0 -i 13 -k AGT
h -t 0.653248000 -s 5 -d -1 -p cbr -e 512 -c 2 -a 0 -i 13 -k AGT
+ -t 0.653248000 -s 5 -d 1 -p cbr -e 532 -c 2 -a 0 -i 13 -k RTR 
- -t 0.653248000 -s 5 -d 1 -p cbr -e 532 -c 2 -a 0 -i 13 -k RTR
h -t 0.653248000 -s 5 -d 1 -p cbr -e 532 -c 2 -a 0 -i 13 -k RTR
+ -t 0.657344000 -s 5 -d -1 -p cbr -e 512 -c 2 -a 0 -i 14 -k AGT 
- -t 0.657344000 -s 5 -d -1 -p cbr -e 512 -c 2 -a 0 -i 14 -k AGT
h -t 0.657344000 -s 5 -d -1 -p cbr -e 512 -c 2 -a 0 -i 14 -k AGT
+ -t 0.657344000 -s 5 -d 1 -p cbr -e 532 -c 2 -a 0 -i 14 -k RTR 
- -t 0.657344000 -s 5 -d 1 -p cbr -e 532 -c 2 -a 0 -i 14 -k RTR
h -t 0.657344000 -s 5 -d 1 -p cbr -e 532 -c 2 -a 0 -i 14 -k RTR
r -t 0.658631707 -s 2 -d 2 -p cbr -e 532 -c 2 -a 0 -i 7 -k AGT
+ -t 0.661440000 -s 5 -d -1 -p cbr -e 512 -c 2 -a 0 -i 15 -k AGT 
- -t 0.661440000 -s 5 -d -1 -p cbr -e 512 -c 2 -a 0 -i 15 -k AGT
h -t 0.661440000 -s 5 -d -1 -p cbr -e 512 -c 2 -a 0 -i 15 -k AGT
+ -t 0.661440000 -s 5 -d 1 -p cbr -e 532 -c 2 -a 0 -i 15 -k RTR 
- -t 0.661440000 -s 5 -d 1 -p cbr -e 532 -c 2 -a 0 -i 15 -k RTR
h -t 0.661440000 -s 5 -d 1 -p cbr -e 532 -c 2 -a 0 -i 15 -k RTR
+ -t 0.661792689 -s 5 -d 1 -p cbr -e 532 -c 2 -a 0 -i 4 -k RTR 
- -t 0.661792689 -s 5 -d 1 -p cbr -e 532 -c 2 -a 0 -i 4 -k RTR
h -t 0.661792689 -s 5 -d 1 -p cbr -e 532 -c 2 -a 0 -i 4 -k RTR
+ -t 0.664978211 -s 1 -d 2 -p cbr -e 532 -c 2 -a 0 -i 1 -k RTR 
- -t 0.664978211 -s 1 -d 2 -p cbr -e 532 -c 2 -a 0 -i 1 -k RTR
h -t 0.664978211 -s 1 -d 2 -p cbr -e 532 -c 2 -a 0 -i 1 -k RTR
+ -t 0.665536000 -s 5 -d -1 -p cbr -e 512 -c 2 -a 0 -i 16 -k AGT 
- -t 0.665536000 -s 5 -d -1 -p cbr -e 512 -c 2 -a 0 -i 16 -k AGT
h -t 0.665536000 -s 5 -d -1 -p cbr -e 512 -c 2 -a 0 -i 16 -k AGT
+ -t 0.665536000 -s 5 -d 1 -p cbr -e 532 -c 2 -a 0 -i 16 -k RTR 
- -t 0.665536000 -s 5 -d 1 -p cbr -e 532 -c 2 -a 0 -i 16 -k RTR
h -t 0.665536000 -s 5 -d 1 -p cbr -e 532 -c 2 -a 0 -i 16 -k RTR
+ -t 0.669632000 -s 5 -d -1 -p cbr -e 512 -c 2 -a 0 -i 17 -k AGT 
- -t 0.669632000 -s 5 -d -1 -p cbr -e 512 -c 2 -a 0 -i 17 -k AGT
h -t 0.669632000 -s 5 -d -1 -p cbr -e 512 -c 2 -a 0 -i 17 -k AGT
+ -t 0.669632000 -s 5 -d 1 -p cbr -e 532 -c 2 -a 0 -i 17 -k RTR 
- -t 0.669632000 -s 5 -d 1 -p cbr -e 532 -c 2 -a 0 -i 17 -k RTR
h -t 0.669632000 -s 5 -d 1 -p cbr -e 532 -c 2 -a 0 -i 17 -k RTR
+ -t 0.670920214 -s 1 -d 2 -p cbr -e 532 -c 2 -a 0 -i 8 -k RTR 
- -t 0.670920214 -s 1 -d 2 -p cbr -e 532 -c 2 -a 0 -i 8 -k RTR
h -t 0.670920214 -s 1 -d 2 -p cbr -e 532 -c 2 -a 0 -i 8 -k RTR
+ -t 0.671792689 -s 5 -d 1 -p cbr -e 532 -c 2 -a 0 -i 5 -k RTR 
- -t 0.671792689 -s 5 -d 1 -p cbr -e 532 -c 2 -a 0 -i 5 -k RTR
h -t 0.671792689 -s 5 -d 1 -p cbr -e 532 -c 2 -a 0 -i 5 -k RTR
+ -t 0.673728000 -s 5 -d -1 -p cbr -e 512 -c 2 -a 0 -i 18 -k AGT 
- -t 0.673728000 -s 5 -d -1 -p cbr -e 512 -c 2 -a 0 -i 18 -k AGT
h -t 0.673728000 -s 5 -d -1 -p cbr -e 512 -c 2 -a 0 -i 18 -k AGT
+ -t 0.673728000 -s 5 -d 1 -p cbr -e 532 -c 2 -a 0 -i 18 -k RTR 
- -t 0.673728000 -s 5 -d 1 -p cbr -e 532 -c 2 -a 0 -i 18 -k RTR
h -t 0.673728000 -s 5 -d 1 -p cbr -e 532 -c 2 -a 0 -i 18 -k RTR
r -t 0.676781717 -s 2 -d 2 -p cbr -e 532 -c 2 -a 0 -i 1 -k AGT
+ -t 0.677824000 -s 5 -d -1 -p cbr -e 512 -c 2 -a 0 -i 19 -k AGT 
- -t 0.677824000 -s 5 -d -1 -p cbr -e 512 -c 2 -a 0 -i 19 -k AGT
h -t 0.677824000 -s 5 -d -1 -p cbr -e 512 -c 2 -a 0 -i 19 -k AGT
+ -t 0.677824000 -s 5 -d 1 -p cbr -e 532 -c 2 -a 0 -i 19 -k RTR 
- -t 0.677824000 -s 5 -d 1 -p cbr -e 532 -c 2 -a 0 -i 19 -k RTR
h -t 0.677824000 -s 5 -d 1 -p cbr -e 532 -c 2 -a 0 -i 19 -k RTR
+ -t 0.681920000 -s 5 -d -1 -p cbr -e 512 -c 2 -a 0 -i 20 -k AGT 
- -t 0.681920000 -s 5 -d -1 -p cbr -e 512 -c 2 -a 0 -i 20 -k AGT
h -t 0.681920000 -s 5 -d -1 -p cbr -e 512 -c 2 -a 0 -i 20 -k AGT
+ -t 0.681920000 -s 5 -d 1 -p cbr -e 532 -c 2 -a 0 -i 20 -k RTR 
- -t 0.681920000 -s 5 -d 1 -p cbr -e 532 -c 2 -a 0 -i 20 -k RTR
h -t 0.681920000 -s 5 -d 1 -p cbr -e 532 -c 2 -a 0 -i 20 -k RTR
r -t 0.683023721 -s 2 -d 2 -p cbr -e 532 -c 2 -a 0 -i 8 -k AGT
+ -t 0.686016000 -s 5 -d -1 -p cbr -e 512 -c 2 -a 0 -i 21 -k AGT 
- -t 0.686016000 -s 5 -d -1 -p cbr -e 512 -c 2 -a 0 -i 21 -k AGT
h -t 0.686016000 -s 5 -d -1 -p cbr -e 512 -c 2 -a 0 -i 21 -k AGT
+ -t 0.686016000 -s 5 -d 1 -p cbr -e 532 -c 2 -a 0 -i 21 -k RTR 
- -t 0.686016000 -s 5 -d 1 -p cbr -e 532 -c 2 -a 0 -i 21 -k RTR
h -t 0.686016000 -s 5 -d 1 -p cbr -e 532 -c 2 -a 0 -i 21 -k RTR
+ -t 0.689250224 -s 1 -d 2 -p cbr -e 532 -c 2 -a 0 -i 9 -k RTR 
- -t 0.689250224 -s 1 -d 2 -p cbr -e 532 -c 2 -a 0 -i 9 -k RTR
h -t 0.689250224 -s 1 -d 2 -p cbr -e 532 -c 2 -a 0 -i 9 -k RTR
+ -t 0.690112000 -s 5 -d -1 -p cbr -e 512 -c 2 -a 0 -i 22 -k AGT 
- -t 0.690112000 -s 5 -d -1 -p cbr -e 512 -c 2 -a 0 -i 22 -k AGT
h -t 0.690112000 -s 5 -d -1 -p cbr -e 512 -c 2 -a 0 -i 22 -k AGT
+ -t 0.690112000 -s 5 -d 1 -p cbr -e 532 -c 2 -a 0 -i 22 -k RTR 
- -t 0.690112000 -s 5 -d 1 -p cbr -e 532 -c 2 -a 0 -i 22 -k RTR
h -t 0.690112000 -s 5 -d 1 -p cbr -e 532 -c 2 -a 0 -i 22 -k RTR
+ -t 0.694208000 -s 5 -d -1 -p cbr -e 512 -c 2 -a 0 -i 23 -k AGT 
- -t 0.694208000 -s 5 -d -1 -p cbr -e 512 -c 2 -a 0 -i 23 -k AGT
h -t 0.694208000 -s 5 -d -1 -p cbr -e 512 -c 2 -a 0 -i 23 -k AGT
+ -t 0.694208000 -s 5 -d 1 -p cbr -e 532 -c 2 -a 0 -i 23 -k RTR 
- -t 0.694208000 -s 5 -d 1 -p cbr -e 532 -c 2 -a 0 -i 23 -k RTR
h -t 0.694208000 -s 5 -d 1 -p cbr -e 532 -c 2 -a 0 -i 23 -k RTR
r -t 0.695231727 -s 2 -d 2 -p cbr -e 532 -c 2 -a 0 -i 9 -k AGT
+ -t 0.698304000 -s 5 -d -1 -p cbr -e 512 -c 2 -a 0 -i 24 -k AGT 
- -t 0.698304000 -s 5 -d -1 -p cbr -e 512 -c 2 -a 0 -i 24 -k AGT
h -t 0.698304000 -s 5 -d -1 -p cbr -e 512 -c 2 -a 0 -i 24 -k AGT
+ -t 0.698304000 -s 5 -d 1 -p cbr -e 532 -c 2 -a 0 -i 24 -k RTR 
- -t 0.698304000 -s 5 -d 1 -p cbr -e 532 -c 2 -a 0 -i 24 -k RTR
h -t 0.698304000 -s 5 -d 1 -p cbr -e 532 -c 2 -a 0 -i 24 -k RTR
+ -t 0.701478231 -s 1 -d 2 -p cbr -e 532 -c 2 -a 0 -i 10 -k RTR 
- -t 0.701478231 -s 1 -d 2 -p cbr -e 532 -c 2 -a 0 -i 10 -k RTR
h -t 0.701478231 -s 1 -d 2 -p cbr -e 532 -c 2 -a 0 -i 10 -k RTR
+ -t 0.702400000 -s 5 -d -1 -p cbr -e 512 -c 2 -a 0 -i 25 -k AGT 
- -t 0.702400000 -s 5 -d -1 -p cbr -e 512 -c 2 -a 0 -i 25 -k AGT
h -t 0.702400000 -s 5 -d -1 -p cbr -e 512 -c 2 -a 0 -i 25 -k AGT
+ -t 0.702400000 -s 5 -d 1 -p cbr -e 532 -c 2 -a 0 -i 25 -k RTR 
- -t 0.702400000 -s 5 -d 1 -p cbr -e 532 -c 2 -a 0 -i 25 -k RTR
h -t 0.702400000 -s 5 -d 1 -p cbr -e 532 -c 2 -a 0 -i 25 -k RTR
+ -t 0.706496000 -s 5 -d -1 -p cbr -e 512 -c 2 -a 0 -i 26 -k AGT 
- -t 0.706496000 -s 5 -d -1 -p cbr -e 512 -c 2 -a 0 -i 26 -k AGT
h -t 0.706496000 -s 5 -d -1 -p cbr -e 512 -c 2 -a 0 -i 26 -k AGT
+ -t 0.706496000 -s 5 -d 1 -p cbr -e 532 -c 2 -a 0 -i 26 -k RTR 
- -t 0.706496000 -s 5 -d 1 -p cbr -e 532 -c 2 -a 0 -i 26 -k RTR
h -t 0.706496000 -s 5 -d 1 -p cbr -e 532 -c 2 -a 0 -i 26 -k RTR
+ -t 0.707320234 -s 1 -d 2 -p cbr -e 532 -c 2 -a 0 -i 2 -k RTR 
- -t 0.707320234 -s 1 -d 2 -p cbr -e 532 -c 2 -a 0 -i 2 -k RTR
h -t 0.707320234 -s 1 -d 2 -p cbr -e 532 -c 2 -a 0 -i 2 -k RTR
+ -t 0.710592000 -s 5 -d -1 -p cbr -e 512 -c 2 -a 0 -i 27 -k AGT 
- -t 0.710592000 -s 5 -d -1 -p cbr -e 512 -c 2 -a 0 -i 27 -k AGT
h -t 0.710592000 -s 5 -d -1 -p cbr -e 512 -c 2 -a 0 -i 27 -k AGT
+ -t 0.710592000 -s 5 -d 1 -p cbr -e 532 -c 2 -a 0 -i 27 -k RTR 
- -t 0.710592000 -s 5 -d 1 -p cbr -e 532 -c 2 -a 0 -i 27 -k RTR
h -t 0.710592000 -s 5 -d 1 -p cbr -e 532 -c 2 -a 0 -i 27 -k RTR
r -t 0.713221737 -s 2 -d 2 -p cbr -e 532 -c 2 -a 0 -i 10 -k AGT
+ -t 0.714688000 -s 5 -d -1 -p cbr -e 512 -c 2 -a 0 -i 28 -k AGT 
- -t 0.714688000 -s 5 -d -1 -p cbr -e 512 -c 2 -a 0 -i 28 -k AGT
h -t 0.714688000 -s 5 -d -1 -p cbr -e 512 -c 2 -a 0 -i 28 -k AGT
+ -t 0.714688000 -s 5 -d 1 -p cbr -e 532 -c 2 -a 0 -i 28 -k RTR 
- -t 0.714688000 -s 5 -d 1 -p cbr -e 532 -c 2 -a 0 -i 28 -k RTR
h -t 0.714688000 -s 5 -d 1 -p cbr -e 532 -c 2 -a 0 -i 28 -k RTR
+ -t 0.718784000 -s 5 -d -1 -p cbr -e 512 -c 2 -a 0 -i 29 -k AGT 
- -t 0.718784000 -s 5 -d -1 -p cbr -e 512 -c 2 -a 0 -i 29 -k AGT
h -t 0.718784000 -s 5 -d -1 -p cbr -e 512 -c 2 -a 0 -i 29 -k AGT
+ -t 0.718784000 -s 5 -d 1 -p cbr -e 532 -c 2 -a 0 -i 29 -k RTR 
- -t 0.718784000 -s 5 -d 1 -p cbr -e 532 -c 2 -a 0 -i 29 -k RTR
h -t 0.718784000 -s 5 -d 1 -p cbr -e 532 -c 2 -a 0 -i 29 -k RTR
r -t 0.718983740 -s 2 -d 2 -p cbr -e 532 -c 2 -a 0 -i 2 -k AGT
+ -t 0.722880000 -s 5 -d -1 -p cbr -e 512 -c 2 -a 0 -i 30 -k AGT 
- -t 0.722880000 -s 5 -d -1 -p cbr -e 512 -c 2 -a 0 -i 30 -k AGT
h -t 0.722880000 -s 5 -d -1 -p cbr -e 512 -c 2 -a 0 -i 30 -k AGT
+ -t 0.722880000 -s 5 -d 1 -p cbr -e 532 -c 2 -a 0 -i 30 -k RTR 
- -t 0.722880000 -s 5 -d 1 -p cbr -e 532 -c 2 -a 0 -i 30 -k RTR
h -t 0.722880000 -s 5 -d 1 -p cbr -e 532 -c 2 -a 0 -i 30 -k RTR
+ -t 0.725270244 -s 1 -d 2 -p cbr -e 532 -c 2 -a 0 -i 11 -k RTR 
- -t 0.725270244 -s 1 -d 2 -p cbr -e 532 -c 2 -a 0 -i 11 -k RTR
h -t 0.725270244 -s 1 -d 2 -p cbr -e 532 -c 2 -a 0 -i 11 -k RTR
+ -t 0.726976000 -s 5 -d -1 -p cbr -e 512 -c 2 -a 0 -i 31 -k AGT 
- -t 0.726976000 -s 5 -d -1 -p cbr -e 512 -c 2 -a 0 -i 31 -k AGT
h -t 0.726976000 -s 5 -d -1 -p cbr -e 512 -c 2 -a 0 -i 31 -k AGT
+ -t 0.726976000 -s 5 -d 1 -p cbr -e 532 -c 2 -a 0 -i 31 -k RTR 
- -t 0.726976000 -s 5 -d 1 -p cbr -e 532 -c 2 -a 0 -i 31 -k RTR
h -t 0.726976000 -s 5 -d 1 -p cbr -e 532 -c 2 -a 0 -i 31 -k RTR
+ -t 0.731072000 -s 5 -d -1 -p cbr -e 512 -c 2 -a 0 -i 32 -k AGT 
- -t 0.731072000 -s 5 -d -1 -p cbr -e 512 -c 2 -a 0 -i 32 -k AGT
h -t 0.731072000 -s 5 -d -1 -p cbr -e 512 -c 2 -a 0 -i 32 -k AGT
+ -t 0.731072000 -s 5 -d 1 -p cbr -e 532 -c 2 -a 0 -i 32 -k RTR 
- -t 0.731072000 -s 5 -d 1 -p cbr -e 532 -c 2 -a 0 -i 32 -k RTR
h -t 0.731072000 -s 5 -d 1 -p cbr -e 532 -c 2 -a 0 -i 32 -k RTR
+ -t 0.731312247 -s 1 -d 2 -p cbr -e 532 -c 2 -a 0 -i 12 -k RTR 
- -t 0.731312247 -s 1 -d 2 -p cbr -e 532 -c 2 -a 0 -i 12 -k RTR
h -t 0.731312247 -s 1 -d 2 -p cbr -e 532 -c 2 -a 0 -i 12 -k RTR
+ -t 0.735168000 -s 5 -d -1 -p cbr -e 512 -c 2 -a 0 -i 33 -k AGT 
- -t 0.735168000 -s 5 -d -1 -p cbr -e 512 -c 2 -a 0 -i 33 -k AGT
h -t 0.735168000 -s 5 -d -1 -p cbr -e 512 -c 2 -a 0 -i 33 -k AGT
+ -t 0.735168000 -s 5 -d 1 -p cbr -e 532 -c 2 -a 0 -i 33 -k RTR 
- -t 0.735168000 -s 5 -d 1 -p cbr -e 532 -c 2 -a 0 -i 33 -k RTR
h -t 0.735168000 -s 5 -d 1 -p cbr -e 532 -c 2 -a 0 -i 33 -k RTR
r -t 0.738660751 -s 2 -d 2 -p cbr -e 532 -c 2 -a 0 -i 11 -k AGT
+ -t 0.739264000 -s 5 -d -1 -p cbr -e 512 -c 2 -a 0 -i 34 -k AGT 
- -t 0.739264000 -s 5 -d -1 -p cbr -e 512 -c 2 -a 0 -i 34 -k AGT
h -t 0.739264000 -s 5 -d -1 -p cbr -e 512 -c 2 -a 0 -i 34 -k AGT
+ -t 0.739264000 -s 5 -d 1 -p cbr -e 532 -c 2 -a 0 -i 34 -k RTR 
- -t 0.739264000 -s 5 -d 1 -p cbr -e 532 -c 2 -a 0 -i 34 -k RTR
h -t 0.739264000 -s 5 -d 1 -p cbr -e 532 -c 2 -a 0 -i 34 -k RTR
+ -t 0.743360000 -s 5 -d -1 -p cbr -e 512 -c 2 -a 0 -i 35 -k AGT 
- -t 0.743360000 -s 5 -d -1 -p cbr -e 512 -c 2 -a 0 -i 35 -k AGT
h -t 0.743360000 -s 5 -d -1 -p cbr -e 512 -c 2 -a 0 -i 35 -k AGT
+ -t 0.743360000 -s 5 -d 1 -p cbr -e 532 -c 2 -a 0 -i 35 -k RTR 
- -t 0.743360000 -s 5 -d 1 -p cbr -e 532 -c 2 -a 0 -i 35 -k RTR
h -t 0.743360000 -s 5 -d 1 -p cbr -e 532 -c 2 -a 0 -i 35 -k RTR
r -t 0.744542755 -s 2 -d 2 -p cbr -e 532 -c 2 -a 0 -i 12 -k AGT
+ -t 0.747456000 -s 5 -d -1 -p cbr -e 512 -c 2 -a 0 -i 36 -k AGT 
- -t 0.747456000 -s 5 -d -1 -p cbr -e 512 -c 2 -a 0 -i 36 -k AGT
h -t 0.747456000 -s 5 -d -1 -p cbr -e 512 -c 2 -a 0 -i 36 -k AGT
+ -t 0.747456000 -s 5 -d 1 -p cbr -e 532 -c 2 -a 0 -i 36 -k RTR 
- -t 0.747456000 -s 5 -d 1 -p cbr -e 532 -c 2 -a 0 -i 36 -k RTR
h -t 0.747456000 -s 5 -d 1 -p cbr -e 532 -c 2 -a 0 -i 36 -k RTR
+ -t 0.750789259 -s 1 -d 2 -p cbr -e 532 -c 2 -a 0 -i 3 -k RTR 
- -t 0.750789259 -s 1 -d 2 -p cbr -e 532 -c 2 -a 0 -i 3 -k RTR
h -t 0.750789259 -s 1 -d 2 -p cbr -e 532 -c 2 -a 0 -i 3 -k RTR
+ -t 0.751552000 -s 5 -d -1 -p cbr -e 512 -c 2 -a 0 -i 37 -k AGT 
- -t 0.751552000 -s 5 -d -1 -p cbr -e 512 -c 2 -a 0 -i 37 -k AGT
h -t 0.751552000 -s 5 -d -1 -p cbr -e 512 -c 2 -a 0 -i 37 -k AGT
+ -t 0.751552000 -s 5 -d 1 -p cbr -e 532 -c 2 -a 0 -i 37 -k RTR 
- -t 0.751552000 -s 5 -d 1 -p cbr -e 532 -c 2 -a 0 -i 37 -k RTR
h -t 0.751552000 -s 5 -d 1 -p cbr -e 532 -c 2 -a 0 -i 37 -k RTR
+ -t 0.755648000 -s 5 -d -1 -p cbr -e 512 -c 2 -a 0 -i 38 -k AGT 
- -t 0.755648000 -s 5 -d -1 -p cbr -e 512 -c 2 -a 0 -i 38 -k AGT
h -t 0.755648000 -s 5 -d -1 -p cbr -e 512 -c 2 -a 0 -i 38 -k AGT
+ -t 0.755648000 -s 5 -d 1 -p cbr -e 532 -c 2 -a 0 -i 38 -k RTR 
- -t 0.755648000 -s 5 -d 1 -p cbr -e 532 -c 2 -a 0 -i 38 -k RTR
h -t 0.755648000 -s 5 -d 1 -p cbr -e 532 -c 2 -a 0 -i 38 -k RTR
r -t 0.756590761 -s 2 -d 2 -p cbr -e 532 -c 2 -a 0 -i 3 -k AGT
+ -t 0.759744000 -s 5 -d -1 -p cbr -e 512 -c 2 -a 0 -i 39 -k AGT 
- -t 0.759744000 -s 5 -d -1 -p cbr -e 512 -c 2 -a 0 -i 39 -k AGT
h -t 0.759744000 -s 5 -d -1 -p cbr -e 512 -c 2 -a 0 -i 39 -k AGT
+ -t 0.759744000 -s 5 -d 1 -p cbr -e 532 -c 2 -a 0 -i 39 -k RTR 
- -t 0.759744000 -s 5 -d 1 -p cbr -e 532 -c 2 -a 0 -i 39 -k RTR
h -t 0.759744000 -s 5 -d 1 -p cbr -e 532 -c 2 -a 0 -i 39 -k RTR
+ -t 0.763137265 -s 1 -d 2 -p cbr -e 532 -c 2 -a 0 -i 13 -k RTR 
- -t 0.763137265 -s 1 -d 2 -p cbr -e 532 -c 2 -a 0 -i 13 -k RTR
h -t 0.763137265 -s 1 -d 2 -p cbr -e 532 -c 2 -a 0 -i 13 -k RTR
+ -t 0.763840000 -s 5 -d -1 -p cbr -e 512 -c 2 -a 0 -i 40 -k AGT 
- -t 0.763840000 -s 5 -d -1 -p cbr -e 512 -c 2 -a 0 -i 40 -k AGT
h -t 0.763840000 -s 5 -d -1 -p cbr -e 512 -c 2 -a 0 -i 40 -k AGT
+ -t 0.763840000 -s 5 -d 1 -p cbr -e 532 -c 2 -a 0 -i 40 -k RTR 
- -t 0.763840000 -s 5 -d 1 -p cbr -e 532 -c 2 -a 0 -i 40 -k RTR
h -t 0.763840000 -s 5 -d 1 -p cbr -e 532 -c 2 -a 0 -i 40 -k RTR
+ -t 0.767936000 -s 5 -d -1 -p cbr -e 512 -c 2 -a 0 -i 41 -k AGT 
- -t 0.767936000 -s 5 -d -1 -p cbr -e 512 -c 2 -a 0 -i 41 -k AGT
h -t 0.767936000 -s 5 -d -1 -p cbr -e 512 -c 2 -a 0 -i 41 -k AGT
+ -t 0.767936000 -s 5 -d 1 -p cbr -e 532 -c 2 -a 0 -i 41 -k RTR 
- -t 0.767936000 -s 5 -d 1 -p cbr -e 532 -c 2 -a 0 -i 41 -k RTR
h -t 0.767936000 -s 5 -d 1 -p cbr -e 532 -c 2 -a 0 -i 41 -k RTR
+ -t 0.768999268 -s 1 -d 2 -p cbr -e 532 -c 2 -a 0 -i 14 -k RTR 
- -t 0.768999268 -s 1 -d 2 -p cbr -e 532 -c 2 -a 0 -i 14 -k RTR
h -t 0.768999268 -s 1 -d 2 -p cbr -e 532 -c 2 -a 0 -i 14 -k RTR
+ -t 0.772032000 -s 5 -d -1 -p cbr -e 512 -c 2 -a 0 -i 42 -k AGT 
- -t 0.772032000 -s 5 -d -1 -p cbr -e 512 -c 2 -a 0 -i 42 -k AGT
h -t 0.772032000 -s 5 -d -1 -p cbr -e 512 -c 2 -a 0 -i 42 -k AGT
+ -t 0.772032000 -s 5 -d 1 -p cbr -e 532 -c 2 -a 0 -i 42 -k RTR 
- -t 0.772032000 -s 5 -d 1 -p cbr -e 532 -c 2 -a 0 -i 42 -k RTR
h -t 0.772032000 -s 5 -d 1 -p cbr -e 532 -c 2 -a 0 -i 42 -k RTR
+ -t 0.774841272 -s 1 -d 2 -p cbr -e 532 -c 2 -a 0 -i 15 -k RTR 
- -t 0.774841272 -s 1 -d 2 -p cbr -e 532 -c 2 -a 0 -i 15 -k RTR
h -t 0.774841272 -s 1 -d 2 -p cbr -e 532 -c 2 -a 0 -i 15 -k RTR
+ -t 0.776128000 -s 5 -d -1 -p cbr -e 512 -c 2 -a 0 -i 43 -k AGT 
- -t 0.776128000 -s 5 -d -1 -p cbr -e 512 -c 2 -a 0 -i 43 -k AGT
h -t 0.776128000 -s 5 -d -1 -p cbr -e 512 -c 2 -a 0 -i 43 -k AGT
+ -t 0.776128000 -s 5 -d 1 -p cbr -e 532 -c 2 -a 0 -i 43 -k RTR 
- -t 0.776128000 -s 5 -d 1 -p cbr -e 532 -c 2 -a 0 -i 43 -k RTR
h -t 0.776128000 -s 5 -d 1 -p cbr -e 532 -c 2 -a 0 -i 43 -k RTR
+ -t 0.780224000 -s 5 -d -1 -p cbr -e 512 -c 2 -a 0 -i 44 -k AGT 
- -t 0.780224000 -s 5 -d -1 -p cbr -e 512 -c 2 -a 0 -i 44 -k AGT
h -t 0.780224000 -s 5 -d -1 -p cbr -e 512 -c 2 -a 0 -i 44 -k AGT
+ -t 0.780224000 -s 5 -d 1 -p cbr -e 532 -c 2 -a 0 -i 44 -k RTR 
- -t 0.780224000 -s 5 -d 1 -p cbr -e 532 -c 2 -a 0 -i 44 -k RTR
h -t 0.780224000 -s 5 -d 1 -p cbr -e 532 -c 2 -a 0 -i 44 -k RTR
r -t 0.780622774 -s 2 -d 2 -p cbr -e 532 -c 2 -a 0 -i 13 -k AGT
+ -t 0.784320000 -s 5 -d -1 -p cbr -e 512 -c 2 -a 0 -i 45 -k AGT 
- -t 0.784320000 -s 5 -d -1 -p cbr -e 512 -c 2 -a 0 -i 45 -k AGT
h -t 0.784320000 -s 5 -d -1 -p cbr -e 512 -c 2 -a 0 -i 45 -k AGT
+ -t 0.784320000 -s 5 -d 1 -p cbr -e 532 -c 2 -a 0 -i 45 -k RTR 
- -t 0.784320000 -s 5 -d 1 -p cbr -e 532 -c 2 -a 0 -i 45 -k RTR
h -t 0.784320000 -s 5 -d 1 -p cbr -e 532 -c 2 -a 0 -i 45 -k RTR
r -t 0.786584778 -s 2 -d 2 -p cbr -e 532 -c 2 -a 0 -i 14 -k AGT
+ -t 0.788416000 -s 5 -d -1 -p cbr -e 512 -c 2 -a 0 -i 46 -k AGT 
- -t 0.788416000 -s 5 -d -1 -p cbr -e 512 -c 2 -a 0 -i 46 -k AGT
h -t 0.788416000 -s 5 -d -1 -p cbr -e 512 -c 2 -a 0 -i 46 -k AGT
+ -t 0.788416000 -s 5 -d 1 -p cbr -e 532 -c 2 -a 0 -i 46 -k RTR 
- -t 0.788416000 -s 5 -d 1 -p cbr -e 532 -c 2 -a 0 -i 46 -k RTR
h -t 0.788416000 -s 5 -d 1 -p cbr -e 532 -c 2 -a 0 -i 46 -k RTR
r -t 0.792406781 -s 2 -d 2 -p cbr -e 532 -c 2 -a 0 -i 15 -k AGT
+ -t 0.792512000 -s 5 -d -1 -p cbr -e 512 -c 2 -a 0 -i 47 -k AGT 
- -t 0.792512000 -s 5 -d -1 -p cbr -e 512 -c 2 -a 0 -i 47 -k AGT
h -t 0.792512000 -s 5 -d -1 -p cbr -e 512 -c 2 -a 0 -i 47 -k AGT
+ -t 0.792512000 -s 5 -d 1 -p cbr -e 532 -c 2 -a 0 -i 47 -k RTR 
- -t 0.792512000 -s 5 -d 1 -p cbr -e 532 -c 2 -a 0 -i 47 -k RTR
h -t 0.792512000 -s 5 -d 1 -p cbr -e 532 -c 2 -a 0 -i 47 -k RTR
+ -t 0.796608000 -s 5 -d -1 -p cbr -e 512 -c 2 -a 0 -i 48 -k AGT 
- -t 0.796608000 -s 5 -d -1 -p cbr -e 512 -c 2 -a 0 -i 48 -k AGT
h -t 0.796608000 -s 5 -d -1 -p cbr -e 512 -c 2 -a 0 -i 48 -k AGT
+ -t 0.796608000 -s 5 -d 1 -p cbr -e 532 -c 2 -a 0 -i 48 -k RTR 
- -t 0.796608000 -s 5 -d 1 -p cbr -e 532 -c 2 -a 0 -i 48 -k RTR
h -t 0.796608000 -s 5 -d 1 -p cbr -e 532 -c 2 -a 0 -i 48 -k RTR
+ -t 0.798773285 -s 1 -d 2 -p cbr -e 532 -c 2 -a 0 -i 4 -k RTR 
- -t 0.798773285 -s 1 -d 2 -p cbr -e 532 -c 2 -a 0 -i 4 -k RTR
h -t 0.798773285 -s 1 -d 2 -p cbr -e 532 -c 2 -a 0 -i 4 -k RTR