M 0.20000 0 (456.00, 320.00, 0.00), (344.00, 313.00), 73.00
M 0.20000 1 (203.00, 139.00, 0.00), (31.00, 112.00), 71.00
M 0.20000 5 (317.00, 348.00, 0.00), (221.00, 167.00), 82.00
M 0.20000 7 (296.00, 356.00, 0.00), (52.00, 351.00), 74.00
M 0.20000 9 (419.00, 140.00, 0.00), (115.00, 73.00), 78.00
M 0.20000 10 (66.00, 54.00, 0.00), (72.00, 118.00), 60.00
s 0.400000000 _5_ AGT  --- 0 cbr 512 [0 0 0 0] [energy 1000.000000 ei 0.000 es 0.000 et 0.000 er 0.000] ------- [5:0 2:0 32 0] [0] 0 0
r 0.400000000 _5_ RTR  --- 0 cbr 512 [0 0 0 0] [energy 1000.000000 ei 0.000 es 0.000 et 0.000 er 0.000] ------- [5:0 2:0 32 0] [0] 0 0
s 0.400000000 _5_ RTR  --- 0 AODV 48 [0 0 0 0] [energy 1000.000000 ei 0.000 es 0.000 et 0.000 er 0.000] ------- [5:255 -1:255 30 0] [0x2 1 1 [2 0] [5 4]] (REQUEST)
N -t 0.400535 -n 7 -e 999.759340
N -t 0.400535 -n 0 -e 999.759340
N -t 0.400536 -n 4 -e 999.759339
N -t 0.400536 -n 2 -e 999.759339
N -t 0.400536 -n 8 -e 999.759339
N -t 0.400536 -n 9 -e 999.759339
N -t 0.400536 -n 1 -e 999.759339
N -t 0.400536 -n 3 -e 999.759339
N -t 0.400536 -n 6 -e 999.759339
N -t 0.400536 -n 10 -e 999.759339
r 0.401408120 _7_ RTR  --- 0 AODV 48 [0 ffffffff 5 800] [energy 999.759340 ei 0.240 es 0.000 et 0.000 er 0.000] ------- [5:255 -1:255 30 0] [0x2 1 1 [2 0] [5 4]] (REQUEST)
r 0.401408443 _0_ RTR  --- 0 AODV 48 [0 ffffffff 5 800] [energy 999.759340 ei 0.240 es 0.000 et 0.000 er 0.000] ------- [5:255 -1:255 30 0] [0x2 1 1 [2 0] [5 4]] (REQUEST)
r 0.401408575 _4_ RTR  --- 0 AODV 48 [0 ffffffff 5 800] [energy 999.759339 ei 0.240 es 0.000 et 0.000 er 0.000] ------- [5:255 -1:255 30 0] [0x2 1 1 [2 0] [5 4]] (REQUEST)
r 0.401408602 _2_ RTR  --- 0 AODV 48 [0 ffffffff 5 800] [energy 999.759339 ei 0.240 es 0.000 et 0.000 er 0.000] ------- [5:255 -1:255 30 0] [0x2 1 1 [2 0] [5 4]] (REQUEST)
s 0.401408602 _2_ RTR  --- 0 AODV 44 [0 0 0 0] [energy 999.759339 ei 0.240 es 0.000 et 0.000 er 0.000] ------- [2:255 5:255 30 5] [0x4 1 [2 4] 10.000000] (REPLY)
r 0.401408668 _8_ RTR  --- 0 AODV 48 [0 ffffffff 5 800] [energy 999.759339 ei 0.240 es 0.000 et 0.000 er 0.000] ------- [5:255 -1:255 30 0] [0x2 1 1 [2 0] [5 4]] (REQUEST)
r 0.401408728 _9_ RTR  --- 0 AODV 48 [0 ffffffff 5 800] [energy 999.759339 ei 0.240 es 0.000 et 0.000 er 0.000] ------- [5:255 -1:255 30 0] [0x2 1 1 [2 0] [5 4]] (REQUEST)
r 0.401408769 _1_ RTR  --- 0 AODV 48 [0 ffffffff 5 800] [energy 999.759339 ei 0.240 es 0.000 et 0.000 er 0.000] ------- [5:255 -1:255 30 0] [0x2 1 1 [2 0] [5 4]] (REQUEST)
s 0.401550166 _7_ RTR  --- 0 AODV 48 [0 ffffffff 5 800] [energy 999.759340 ei 0.240 es 0.000 et 0.000 er 0.000] ------- [7:255 -1:255 29 0] [0x2 2 1 [2 0] [5 4]] (REQUEST)
N -t 0.401704 -n 0 -e 999.758872
N -t 0.401704 -n 5 -e 999.758363
N -t 0.401704 -n 4 -e 999.758872
N -t 0.401704 -n 7 -e 999.758872
N -t 0.401704 -n 9 -e 999.758872
N -t 0.401705 -n 8 -e 999.758871
N -t 0.401705 -n 1 -e 999.758871
N -t 0.401705 -n 6 -e 999.758871
N -t 0.401705 -n 3 -e 999.758871
N -t 0.401705 -n 10 -e 999.758871
s 0.402289670 _0_ RTR  --- 0 AODV 48 [0 ffffffff 5 800] [energy 999.758872 ei 0.241 es 0.000 et 0.000 er 0.001] ------- [0:255 -1:255 29 0] [0x2 2 1 [2 0] [5 4]] (REQUEST)
N -t 0.402487 -n 7 -e 999.758674
N -t 0.402488 -n 0 -e 999.758674
N -t 0.402488 -n 4 -e 999.758674
N -t 0.402488 -n 2 -e 999.758261
N -t 0.402488 -n 8 -e 999.758674
N -t 0.402488 -n 9 -e 999.758674
N -t 0.402488 -n 1 -e 999.758674
N -t 0.402488 -n 3 -e 999.758674
N -t 0.402488 -n 6 -e 999.758673
N -t 0.402488 -n 10 -e 999.758673
N -t 0.402850 -n 0 -e 999.758546
N -t 0.402850 -n 5 -e 999.757826
N -t 0.402850 -n 4 -e 999.758546
N -t 0.402850 -n 7 -e 999.758546
N -t 0.402851 -n 9 -e 999.758546
N -t 0.402851 -n 8 -e 999.758545
N -t 0.402851 -n 1 -e 999.758545
N -t 0.402851 -n 6 -e 999.758545
N -t 0.402851 -n 3 -e 999.758545
N -t 0.402852 -n 10 -e 999.758545
N -t 0.403165 -n 7 -e 999.758264
N -t 0.403165 -n 0 -e 999.758264
N -t 0.403165 -n 4 -e 999.758264
N -t 0.403165 -n 2 -e 999.757669
N -t 0.403165 -n 8 -e 999.758264
N -t 0.403165 -n 9 -e 999.758264
N -t 0.403165 -n 1 -e 999.758264
N -t 0.403165 -n 3 -e 999.758264
N -t 0.403165 -n 6 -e 999.758264
N -t 0.403166 -n 10 -e 999.758264
N -t 0.403863 -n 0 -e 999.758136
N -t 0.403864 -n 5 -e 999.757003
N -t 0.403864 -n 4 -e 999.758136
N -t 0.403864 -n 7 -e 999.758136
N -t 0.403864 -n 9 -e 999.758136
N -t 0.403864 -n 8 -e 999.758136
N -t 0.403864 -n 1 -e 999.758136
N -t 0.403864 -n 6 -e 999.758136
N -t 0.403865 -n 3 -e 999.758136
N -t 0.403865 -n 10 -e 999.758136
s 0.404096000 _5_ AGT  --- 1 cbr 512 [0 0 0 0] [energy 999.757003 ei 0.241 es 0.000 et 0.002 er 0.001] ------- [5:0 2:0 32 0] [1] 0 0
r 0.404096000 _5_ RTR  --- 1 cbr 512 [0 0 0 0] [energy 999.757003 ei 0.241 es 0.000 et 0.002 er 0.001] ------- [5:0 2:0 32 0] [1] 0 0
N -t 0.404417 -n 0 -e 999.757846
N -t 0.404418 -n 5 -e 999.756713
N -t 0.404418 -n 4 -e 999.757845
N -t 0.404418 -n 7 -e 999.757845
N -t 0.404418 -n 9 -e 999.757845
N -t 0.404418 -n 8 -e 999.757845
N -t 0.404418 -n 1 -e 999.757845
N -t 0.404418 -n 6 -e 999.757845
N -t 0.404419 -n 3 -e 999.757845
N -t 0.404419 -n 10 -e 999.757845
s 0.404538345 _9_ RTR  --- 0 AODV 48 [0 ffffffff 5 800] [energy 999.757845 ei 0.241 es 0.000 et 0.000 er 0.001] ------- [9:255 -1:255 29 0] [0x2 2 1 [2 0] [5 4]] (REQUEST)
N -t 0.404780 -n 7 -e 999.757718
N -t 0.404780 -n 0 -e 999.757718
N -t 0.404780 -n 4 -e 999.757717
N -t 0.404780 -n 2 -e 999.756729
N -t 0.404780 -n 8 -e 999.757717
N -t 0.404780 -n 9 -e 999.757717
N -t 0.404780 -n 1 -e 999.757717
N -t 0.404781 -n 3 -e 999.757717
N -t 0.404781 -n 6 -e 999.757717
N -t 0.404781 -n 10 -e 999.757717
N -t 0.405094 -n 0 -e 999.757385
N -t 0.405095 -n 5 -e 999.756070
N -t 0.405095 -n 4 -e 999.757385
N -t 0.405095 -n 7 -e 999.757385
N -t 0.405095 -n 9 -e 999.757385
N -t 0.405095 -n 8 -e 999.757384
N -t 0.405095 -n 1 -e 999.757384
N -t 0.405096 -n 6 -e 999.757384
N -t 0.405096 -n 3 -e 999.757384
N -t 0.405096 -n 10 -e 999.757384
s 0.405820309 _4_ RTR  --- 0 AODV 48 [0 ffffffff 5 800] [energy 999.757385 ei 0.241 es 0.000 et 0.000 er 0.002] ------- [4:255 -1:255 29 0] [0x2 2 1 [2 0] [5 4]] (REQUEST)
N -t 0.405921 -n 7 -e 999.757257
N -t 0.405921 -n 0 -e 999.757257
N -t 0.405921 -n 4 -e 999.757257
N -t 0.405921 -n 2 -e 999.755778
N -t 0.405921 -n 8 -e 999.757257
N -t 0.405922 -n 9 -e 999.757257
N -t 0.405922 -n 1 -e 999.757257
N -t 0.405922 -n 3 -e 999.757257
N -t 0.405922 -n 6 -e 999.757256
N -t 0.405922 -n 10 -e 999.757256
r 0.405935818 _5_ RTR  --- 0 AODV 44 [13a 5 2 800] [energy 999.755760 ei 0.241 es 0.000 et 0.002 er 0.001] ------- [2:255 5:255 30 5] [0x4 1 [2 4] 10.000000] (REPLY)
s 0.405935818 _5_ RTR  --- 0 cbr 532 [0 0 0 0] [energy 999.755760 ei 0.241 es 0.000 et 0.002 er 0.001] ------- [5:0 2:0 30 2] [0] 0 0
N -t 0.406296 -n 2 -e 999.755397
N -t 0.406296 -n 4 -e 999.756875
N -t 0.406296 -n 5 -e 999.755378
N -t 0.406296 -n 7 -e 999.756875
N -t 0.406296 -n 9 -e 999.756875
N -t 0.406296 -n 8 -e 999.756875
N -t 0.406296 -n 1 -e 999.756875
N -t 0.406296 -n 6 -e 999.756875
N -t 0.406297 -n 3 -e 999.756875
N -t 0.406297 -n 10 -e 999.756875
r 0.407168522 _2_ RTR  --- 0 AODV 48 [0 ffffffff 0 800] [energy 999.755397 ei 0.241 es 0.000 et 0.002 er 0.001] ------- [0:255 -1:255 29 0] [0x2 2 1 [2 0] [5 4]] (REQUEST)
r 0.407168656 _4_ RTR  --- 0 AODV 48 [0 ffffffff 0 800] [energy 999.756875 ei 0.241 es 0.000 et 0.000 er 0.002] ------- [0:255 -1:255 29 0] [0x2 2 1 [2 0] [5 4]] (REQUEST)
r 0.407168702 _5_ RTR  --- 0 AODV 48 [0 ffffffff 0 800] [energy 999.755378 ei 0.241 es 0.000 et 0.002 er 0.001] ------- [0:255 -1:255 29 0] [0x2 2 1 [2 0] [5 4]] (REQUEST)
r 0.407168808 _7_ RTR  --- 0 AODV 48 [0 ffffffff 0 800] [energy 999.756875 ei 0.241 es 0.000 et 0.000 er 0.002] ------- [0:255 -1:255 29 0] [0x2 2 1 [2 0] [5 4]] (REQUEST)
r 0.407168881 _9_ RTR  --- 0 AODV 48 [0 ffffffff 0 800] [energy 999.756875 ei 0.241 es 0.000 et 0.000 er 0.002] ------- [0:255 -1:255 29 0] [0x2 2 1 [2 0] [5 4]] (REQUEST)
N -t 0.407234 -n 5 -e 999.754984
N -t 0.407234 -n 0 -e 999.755973
N -t 0.407234 -n 8 -e 999.756482
N -t 0.407234 -n 2 -e 999.755003
N -t 0.407235 -n 4 -e 999.756482
N -t 0.407235 -n 1 -e 999.756482
N -t 0.407235 -n 9 -e 999.756482
N -t 0.407235 -n 3 -e 999.756482
N -t 0.407235 -n 6 -e 999.756481
N -t 0.407235 -n 10 -e 999.756481
r 0.408106929 _5_ RTR  --- 0 AODV 48 [0 ffffffff 7 800] [energy 999.754984 ei 0.241 es 0.000 et 0.002 er 0.002] ------- [7:255 -1:255 29 0] [0x2 2 1 [2 0] [5 4]] (REQUEST)
r 0.408107356 _0_ RTR  --- 0 AODV 48 [0 ffffffff 7 800] [energy 999.755973 ei 0.241 es 0.000 et 0.001 er 0.002] ------- [7:255 -1:255 29 0] [0x2 2 1 [2 0] [5 4]] (REQUEST)
r 0.408107464 _8_ RTR  --- 0 AODV 48 [0 ffffffff 7 800] [energy 999.756482 ei 0.241 es 0.000 et 0.000 er 0.003] ------- [7:255 -1:255 29 0] [0x2 2 1 [2 0] [5 4]] (REQUEST)
r 0.408107486 _2_ RTR  --- 0 AODV 48 [0 ffffffff 7 800] [energy 999.755003 ei 0.241 es 0.000 et 0.002 er 0.002] ------- [7:255 -1:255 29 0] [0x2 2 1 [2 0] [5 4]] (REQUEST)
r 0.408107502 _4_ RTR  --- 0 AODV 48 [0 ffffffff 7 800] [energy 999.756482 ei 0.241 es 0.000 et 0.000 er 0.003] ------- [7:255 -1:255 29 0] [0x2 2 1 [2 0] [5 4]] (REQUEST)
r 0.408107600 _1_ RTR  --- 0 AODV 48 [0 ffffffff 7 800] [energy 999.756482 ei 0.241 es 0.000 et 0.000 er 0.003] ------- [7:255 -1:255 29 0] [0x2 2 1 [2 0] [5 4]] (REQUEST)
s 0.408192000 _5_ AGT  --- 2 cbr 512 [0 0 0 0] [energy 999.754984 ei 0.241 es 0.000 et 0.002 er 0.002] ------- [5:0 2:0 32 0] [2] 0 0
r 0.408192000 _5_ RTR  --- 2 cbr 512 [0 0 0 0] [energy 999.754984 ei 0.241 es 0.000 et 0.002 er 0.002] ------- [5:0 2:0 32 0] [2] 0 0
s 0.408192000 _5_ RTR  --- 2 cbr 532 [0 0 0 0] [energy 999.754984 ei 0.241 es 0.000 et 0.002 er 0.002] ------- [5:0 2:0 30 2] [2] 0 0
N -t 0.408412 -n 7 -e 999.755634
N -t 0.408412 -n 0 -e 999.755634
N -t 0.408413 -n 4 -e 999.756143
N -t 0.408413 -n 2 -e 999.754664
N -t 0.408413 -n 8 -e 999.756143
N -t 0.408413 -n 9 -e 999.756143
N -t 0.408413 -n 1 -e 999.756143
N -t 0.408413 -n 3 -e 999.756143
N -t 0.408413 -n 6 -e 999.756143
N -t 0.408413 -n 10 -e 999.756143
N -t 0.408775 -n 0 -e 999.755506
N -t 0.408775 -n 5 -e 999.754306
N -t 0.408775 -n 4 -e 999.756015
N -t 0.408775 -n 7 -e 999.755506
N -t 0.408775 -n 9 -e 999.756015
N -t 0.408776 -n 8 -e 999.756015
N -t 0.408776 -n 1 -e 999.756015
N -t 0.408776 -n 6 -e 999.756014
N -t 0.408776 -n 3 -e 999.756014
N -t 0.408776 -n 10 -e 999.756014
N -t 0.409089 -n 7 -e 999.753612
N -t 0.409090 -n 0 -e 999.753612
N -t 0.409090 -n 4 -e 999.754121
N -t 0.409090 -n 2 -e 999.752460
N -t 0.409090 -n 8 -e 999.754121
N -t 0.409090 -n 9 -e 999.754120
N -t 0.409090 -n 1 -e 999.754120
N -t 0.409090 -n 3 -e 999.754120
N -t 0.409090 -n 6 -e 999.754120
N -t 0.409090 -n 10 -e 999.754120
s 0.409400222 _8_ RTR  --- 0 AODV 48 [0 ffffffff 5 800] [energy 999.754121 ei 0.241 es 0.000 et 0.000 er 0.005] ------- [8:255 -1:255 29 0] [0x2 2 1 [2 0] [5 4]] (REQUEST)
s 0.409573529 _1_ RTR  --- 0 AODV 48 [0 ffffffff 5 800] [energy 999.754120 ei 0.241 es 0.000 et 0.000 er 0.005] ------- [1:255 -1:255 29 0] [0x2 2 1 [2 0] [5 4]] (REQUEST)
s 0.412288000 _5_ AGT  --- 3 cbr 512 [0 0 0 0] [energy 999.749580 ei 0.241 es 0.000 et 0.008 er 0.002] ------- [5:0 2:0 32 0] [3] 0 0
r 0.412288000 _5_ RTR  --- 3 cbr 512 [0 0 0 0] [energy 999.749580 ei 0.241 es 0.000 et 0.008 er 0.002] ------- [5:0 2:0 32 0] [3] 0 0
s 0.412288000 _5_ RTR  --- 3 cbr 532 [0 0 0 0] [energy 999.749580 ei 0.241 es 0.000 et 0.008 er 0.002] ------- [5:0 2:0 30 2] [3] 0 0
N -t 0.413820 -n 0 -e 999.753484
N -t 0.413820 -n 5 -e 999.749452
N -t 0.413820 -n 4 -e 999.753993
N -t 0.413820 -n 7 -e 999.753484
N -t 0.413821 -n 9 -e 999.753992
N -t 0.413821 -n 8 -e 999.753992
N -t 0.413821 -n 1 -e 999.753992
N -t 0.413821 -n 6 -e 999.753992
N -t 0.413821 -n 3 -e 999.753992
N -t 0.413821 -n 10 -e 999.753992
r 0.413834739 _2_ AGT  --- 0 cbr 532 [13a 2 5 800] [energy 999.752150 ei 0.241 es 0.000 et 0.003 er 0.004] ------- [5:0 2:0 30 2] [0] 1 0
N -t 0.414195 -n 9 -e 999.753611
N -t 0.414195 -n 0 -e 999.753102
N -t 0.414195 -n 5 -e 999.749070
N -t 0.414195 -n 2 -e 999.751768
N -t 0.414195 -n 7 -e 999.753102
N -t 0.414195 -n 6 -e 999.753611
N -t 0.414195 -n 1 -e 999.753611
N -t 0.414195 -n 8 -e 999.753611
N -t 0.414196 -n 3 -e 999.753611
N -t 0.414196 -n 10 -e 999.753611
r 0.415067612 _9_ RTR  --- 0 AODV 48 [0 ffffffff 4 800] [energy 999.753611 ei 0.241 es 0.000 et 0.000 er 0.005] ------- [4:255 -1:255 29 0] [0x2 2 1 [2 0] [5 4]] (REQUEST)
r 0.415067780 _0_ RTR  --- 0 AODV 48 [0 ffffffff 4 800] [energy 999.753102 ei 0.241 es 0.000 et 0.001 er 0.005] ------- [4:255 -1:255 29 0] [0x2 2 1 [2 0] [5 4]] (REQUEST)
r 0.415067959 _5_ RTR  --- 0 AODV 48 [0 ffffffff 4 800] [energy 999.749070 ei 0.241 es 0.000 et 0.008 er 0.002] ------- [4:255 -1:255 29 0] [0x2 2 1 [2 0] [5 4]] (REQUEST)
r 0.415068031 _2_ RTR  --- 0 AODV 48 [0 ffffffff 4 800] [energy 999.751768 ei 0.241 es 0.000 et 0.003 er 0.004] ------- [4:255 -1:255 29 0] [0x2 2 1 [2 0] [5 4]] (REQUEST)
r 0.415068080 _7_ RTR  --- 0 AODV 48 [0 ffffffff 4 800] [energy 999.753102 ei 0.241 es 0.000 et 0.001 er 0.005] ------- [4:255 -1:255 29 0] [0x2 2 1 [2 0] [5 4]] (REQUEST)
r 0.415068172 _6_ RTR  --- 0 AODV 48 [0 ffffffff 4 800] [energy 999.753611 ei 0.241 es 0.000 et 0.000 er 0.005] ------- [4:255 -1:255 29 0] [0x2 2 1 [2 0] [5 4]] (REQUEST)
r 0.415068192 _1_ RTR  --- 0 AODV 48 [0 ffffffff 4 800] [energy 999.753611 ei 0.241 es 0.000 et 0.000 er 0.005] ------- [4:255 -1:255 29 0] [0x2 2 1 [2 0] [5 4]] (REQUEST)
N -t 0.415213 -n 4 -e 999.752661
N -t 0.415213 -n 6 -e 999.753170
N -t 0.415213 -n 0 -e 999.752661
N -t 0.415213 -n 1 -e 999.753170
N -t 0.415213 -n 5 -e 999.748629
N -t 0.415213 -n 7 -e 999.752661
N -t 0.415213 -n 8 -e 999.753170
N -t 0.415213 -n 2 -e 999.751326
N -t 0.415214 -n 10 -e 999.753169
N -t 0.415214 -n 3 -e 999.753169
s 0.415935818 _5_ RTR  --- 1 cbr 532 [0 0 0 0] [energy 999.748629 ei 0.241 es 0.000 et 0.008 er 0.003] ------- [5:0 2:0 30 2] [1] 0 0
r 0.416085839 _4_ RTR  --- 0 AODV 48 [0 ffffffff 9 800] [energy 999.752661 ei 0.241 es 0.000 et 0.001 er 0.005] ------- [9:255 -1:255 29 0] [0x2 2 1 [2 0] [5 4]] (REQUEST)
r 0.416086197 _6_ RTR  --- 0 AODV 48 [0 ffffffff 9 800] [energy 999.753170 ei 0.241 es 0.000 et 0.000 er 0.006] ------- [9:255 -1:255 29 0] [0x2 2 1 [2 0] [5 4]] (REQUEST)
r 0.416086234 _0_ RTR  --- 0 AODV 48 [0 ffffffff 9 800] [energy 999.752661 ei 0.241 es 0.000 et 0.001 er 0.005] ------- [9:255 -1:255 29 0] [0x2 2 1 [2 0] [5 4]] (REQUEST)
r 0.416086328 _1_ RTR  --- 0 AODV 48 [0 ffffffff 9 800] [energy 999.753170 ei 0.241 es 0.000 et 0.000 er 0.006] ------- [9:255 -1:255 29 0] [0x2 2 1 [2 0] [5 4]] (REQUEST)
r 0.416086337 _5_ RTR  --- 0 AODV 48 [0 ffffffff 9 800] [energy 999.748629 ei 0.241 es 0.000 et 0.008 er 0.003] ------- [9:255 -1:255 29 0] [0x2 2 1 [2 0] [5 4]] (REQUEST)
N -t 0.416171 -n 7 -e 999.752454
N -t 0.416172 -n 0 -e 999.752454
N -t 0.416172 -n 4 -e 999.752454
N -t 0.416172 -n 2 -e 999.751119
N -t 0.416172 -n 8 -e 999.752962
N -t 0.416172 -n 9 -e 999.752454
N -t 0.416172 -n 1 -e 999.752962
N -t 0.416172 -n 3 -e 999.752962
N -t 0.416172 -n 6 -e 999.752962
N -t 0.416173 -n 10 -e 999.752962
s 0.416384000 _5_ AGT  --- 4 cbr 512 [0 0 0 0] [energy 999.748211 ei 0.241 es 0.000 et 0.008 er 0.003] ------- [5:0 2:0 32 0] [4] 0 0
r 0.416384000 _5_ RTR  --- 4 cbr 512 [0 0 0 0] [energy 999.748211 ei 0.241 es 0.000 et 0.008 er 0.003] ------- [5:0 2:0 32 0] [4] 0 0
s 0.416384000 _5_ RTR  --- 4 cbr 532 [0 0 0 0] [energy 999.748211 ei 0.241 es 0.000 et 0.008 er 0.003] ------- [5:0 2:0 30 2] [4] 0 0
N -t 0.416534 -n 0 -e 999.752326
N -t 0.416535 -n 5 -e 999.748082
N -t 0.416535 -n 4 -e 999.752326
N -t 0.416535 -n 7 -e 999.752326
N -t 0.416535 -n 9 -e 999.752326
N -t 0.416535 -n 8 -e 999.752834
N -t 0.416535 -n 1 -e 999.752834
N -t 0.416535 -n 6 -e 999.752834
N -t 0.416535 -n 3 -e 999.752834
N -t 0.416536 -n 10 -e 999.752834
N -t 0.416849 -n 7 -e 999.750432
N -t 0.416849 -n 0 -e 999.750431
N -t 0.416849 -n 4 -e 999.750431
N -t 0.416849 -n 2 -e 999.748915
N -t 0.416849 -n 8 -e 999.750940
N -t 0.416849 -n 9 -e 999.750431
N -t 0.416849 -n 1 -e 999.750940
N -t 0.416849 -n 3 -e 999.750940
N -t 0.416850 -n 6 -e 999.750940
N -t 0.416850 -n 10 -e 999.750940
s 0.419155029 _6_ RTR  --- 0 AODV 48 [0 ffffffff 4 800] [energy 999.750940 ei 0.241 es 0.000 et 0.000 er 0.008] ------- [6:255 -1:255 28 0] [0x2 3 1 [2 0] [5 4]] (REQUEST)
s 0.420480000 _5_ AGT  --- 5 cbr 512 [0 0 0 0] [energy 999.743356 ei 0.241 es 0.000 et 0.013 er 0.003] ------- [5:0 2:0 32 0] [5] 0 0
r 0.420480000 _5_ RTR  --- 5 cbr 512 [0 0 0 0] [energy 999.743356 ei 0.241 es 0.000 et 0.013 er 0.003] ------- [5:0 2:0 32 0] [5] 0 0
s 0.420480000 _5_ RTR  --- 5 cbr 532 [0 0 0 0] [energy 999.743356 ei 0.241 es 0.000 et 0.013 er 0.003] ------- [5:0 2:0 30 2] [5] 0 0
N -t 0.421579 -n 0 -e 999.750304
N -t 0.421580 -n 5 -e 999.743228
N -t 0.421580 -n 4 -e 999.750303
N -t 0.421580 -n 7 -e 999.750303
N -t 0.421580 -n 9 -e 999.750303
N -t 0.421580 -n 8 -e 999.750812
N -t 0.421580 -n 1 -e 999.750812
N -t 0.421581 -n 6 -e 999.750812
N -t 0.421581 -n 3 -e 999.750812
N -t 0.421581 -n 10 -e 999.750811
r 0.421594151 _2_ AGT  --- 2 cbr 532 [13a 2 5 800] [energy 999.748605 ei 0.241 es 0.000 et 0.004 er 0.006] ------- [5:0 2:0 30 2] [2] 1 0
N -t 0.422114 -n 7 -e 999.750024
N -t 0.422114 -n 0 -e 999.750024
N -t 0.422114 -n 4 -e 999.750024
N -t 0.422114 -n 2 -e 999.748325
N -t 0.422114 -n 8 -e 999.750533
N -t 0.422114 -n 9 -e 999.750024
N -t 0.422115 -n 1 -e 999.750533
N -t 0.422115 -n 3 -e 999.750533
N -t 0.422115 -n 6 -e 999.750533
N -t 0.422115 -n 10 -e 999.750533
N -t 0.422477 -n 0 -e 999.749896
N -t 0.422477 -n 5 -e 999.742610
N -t 0.422477 -n 4 -e 999.749896
N -t 0.422477 -n 7 -e 999.749896
N -t 0.422477 -n 9 -e 999.749896
N -t 0.422478 -n 8 -e 999.750405
N -t 0.422478 -n 1 -e 999.750405
N -t 0.422478 -n 6 -e 999.750405
N -t 0.422478 -n 3 -e 999.750404
N -t 0.422478 -n 10 -e 999.750404
N -t 0.422791 -n 7 -e 999.748002
N -t 0.422791 -n 0 -e 999.748002
N -t 0.422792 -n 4 -e 999.748002
N -t 0.422792 -n 2 -e 999.746120
N -t 0.422792 -n 8 -e 999.748511
N -t 0.422792 -n 9 -e 999.748002
N -t 0.422792 -n 1 -e 999.748511
N -t 0.422792 -n 3 -e 999.748510
N -t 0.422792 -n 6 -e 999.748510
N -t 0.422792 -n 10 -e 999.748510
s 0.424576000 _5_ AGT  --- 6 cbr 512 [0 0 0 0] [energy 999.737884 ei 0.241 es 0.000 et 0.018 er 0.003] ------- [5:0 2:0 32 0] [6] 0 0
r 0.424576000 _5_ RTR  --- 6 cbr 512 [0 0 0 0] [energy 999.737884 ei 0.241 es 0.000 et 0.018 er 0.003] ------- [5:0 2:0 32 0] [6] 0 0
s 0.424576000 _5_ RTR  --- 6 cbr 532 [0 0 0 0] [energy 999.737884 ei 0.241 es 0.000 et 0.018 er 0.003] ------- [5:0 2:0 30 2] [6] 0 0
N -t 0.427522 -n 0 -e 999.747874
N -t 0.427522 -n 5 -e 999.737755
N -t 0.427522 -n 4 -e 999.747874
N -t 0.427522 -n 7 -e 999.747874
N -t 0.427522 -n 9 -e 999.747874
N -t 0.427523 -n 8 -e 999.748382
N -t 0.427523 -n 1 -e 999.748382
N -t 0.427523 -n 6 -e 999.748382
N -t 0.427523 -n 3 -e 999.748382
N -t 0.427523 -n 10 -e 999.748382
r 0.427536575 _2_ AGT  --- 3 cbr 532 [13a 2 5 800] [energy 999.745810 ei 0.241 es 0.000 et 0.004 er 0.008] ------- [5:0 2:0 30 2] [3] 1 0
N -t 0.428381 -n 8 -e 999.747711
N -t 0.428381 -n 10 -e 999.747710
N -t 0.428381 -n 6 -e 999.747710
N -t 0.428381 -n 3 -e 999.747710
N -t 0.428382 -n 9 -e 999.747201
N -t 0.428382 -n 5 -e 999.737083
N -t 0.428382 -n 7 -e 999.747201
N -t 0.428382 -n 4 -e 999.747201
N -t 0.428382 -n 0 -e 999.747201
N -t 0.428382 -n 2 -e 999.745137
s 0.428672000 _5_ AGT  --- 7 cbr 512 [0 0 0 0] [energy 999.737083 ei 0.242 es 0.000 et 0.018 er 0.003] ------- [5:0 2:0 32 0] [7] 0 0
r 0.428672000 _5_ RTR  --- 7 cbr 512 [0 0 0 0] [energy 999.737083 ei 0.242 es 0.000 et 0.018 er 0.003] ------- [5:0 2:0 32 0] [7] 0 0
s 0.428672000 _5_ RTR  --- 7 cbr 532 [0 0 0 0] [energy 999.737083 ei 0.242 es 0.000 et 0.018 er 0.003] ------- [5:0 2:0 30 2] [7] 0 0
r 0.429254097 _8_ RTR  --- 0 AODV 48 [0 ffffffff 1 800] [energy 999.747711 ei 0.242 es 0.000 et 0.000 er 0.010] ------- [1:255 -1:255 29 0] [0x2 2 1 [2 0] [5 4]] (REQUEST)
r 0.429254323 _10_ RTR  --- 0 AODV 48 [0 ffffffff 1 800] [energy 999.747710 ei 0.242 es 0.000 et 0.000 er 0.010] ------- [1:255 -1:255 29 0] [0x2 2 1 [2 0] [5 4]] (REQUEST)
r 0.429254350 _6_ RTR  --- 0 AODV 48 [0 ffffffff 1 800] [energy 999.747710 ei 0.242 es 0.000 et 0.000 er 0.010] ------- [1:255 -1:255 29 0] [0x2 2 1 [2 0] [5 4]] (REQUEST)
r 0.429254467 _3_ RTR  --- 0 AODV 48 [0 ffffffff 1 800] [energy 999.747710 ei 0.242 es 0.000 et 0.000 er 0.010] ------- [1:255 -1:255 29 0] [0x2 2 1 [2 0] [5 4]] (REQUEST)
r 0.429254578 _9_ RTR  --- 0 AODV 48 [0 ffffffff 1 800] [energy 999.747201 ei 0.242 es 0.000 et 0.001 er 0.010] ------- [1:255 -1:255 29 0] [0x2 2 1 [2 0] [5 4]] (REQUEST)
r 0.429254628 _5_ RTR  --- 0 AODV 48 [0 ffffffff 1 800] [energy 999.737083 ei 0.242 es 0.000 et 0.018 er 0.003] ------- [1:255 -1:255 29 0] [0x2 2 1 [2 0] [5 4]] (REQUEST)
r 0.429254655 _7_ RTR  --- 0 AODV 48 [0 ffffffff 1 800] [energy 999.747201 ei 0.242 es 0.000 et 0.001 er 0.010] ------- [1:255 -1:255 29 0] [0x2 2 1 [2 0] [5 4]] (REQUEST)
r 0.429254672 _4_ RTR  --- 0 AODV 48 [0 ffffffff 1 800] [energy 999.747201 ei 0.242 es 0.000 et 0.001 er 0.010] ------- [1:255 -1:255 29 0] [0x2 2 1 [2 0] [5 4]] (REQUEST)
N -t 0.429360 -n 7 -e 999.746983
N -t 0.429360 -n 0 -e 999.746982
N -t 0.429360 -n 4 -e 999.746982
N -t 0.429360 -n 2 -e 999.744918
N -t 0.429360 -n 8 -e 999.747491
N -t 0.429360 -n 9 -e 999.746982
N -t 0.429360 -n 1 -e 999.746982
N -t 0.429361 -n 3 -e 999.747491
N -t 0.429361 -n 6 -e 999.747491
N -t 0.429361 -n 10 -e 999.747491
N -t 0.429723 -n 0 -e 999.746854
N -t 0.429723 -n 5 -e 999.736525
N -t 0.429723 -n 4 -e 999.746854
N -t 0.429723 -n 7 -e 999.746854
N -t 0.429723 -n 9 -e 999.746854
N -t 0.429723 -n 8 -e 999.747363
N -t 0.429724 -n 1 -e 999.746854
N -t 0.429724 -n 6 -e 999.747363
N -t 0.429724 -n 3 -e 999.747363
N -t 0.429724 -n 10 -e 999.747362
N -t 0.430037 -n 7 -e 999.744960
N -t 0.430037 -n 0 -e 999.744960
N -t 0.430037 -n 4 -e 999.744960
N -t 0.430037 -n 2 -e 999.742714
N -t 0.430038 -n 8 -e 999.745469
N -t 0.430038 -n 9 -e 999.744960
N -t 0.430038 -n 1 -e 999.744960
N -t 0.430038 -n 3 -e 999.745469
N -t 0.430038 -n 6 -e 999.745468
N -t 0.430038 -n 10 -e 999.745468
s 0.431425917 _10_ RTR  --- 0 AODV 48 [0 ffffffff 1 800] [energy 999.745468 ei 0.242 es 0.000 et 0.000 er 0.013] ------- [10:255 -1:255 28 0] [0x2 3 1 [2 0] [5 4]] (REQUEST)
s 0.431666724 _3_ RTR  --- 0 AODV 48 [0 ffffffff 1 800] [energy 999.745469 ei 0.242 es 0.000 et 0.000 er 0.013] ------- [3:255 -1:255 28 0] [0x2 3 1 [2 0] [5 4]] (REQUEST)
s 0.432768000 _5_ AGT  --- 8 cbr 512 [0 0 0 0] [energy 999.731799 ei 0.242 es 0.000 et 0.023 er 0.004] ------- [5:0 2:0 32 0] [8] 0 0
r 0.432768000 _5_ RTR  --- 8 cbr 512 [0 0 0 0] [energy 999.731799 ei 0.242 es 0.000 et 0.023 er 0.004] ------- [5:0 2:0 32 0] [8] 0 0
s 0.432768000 _5_ RTR  --- 8 cbr 532 [0 0 0 0] [energy 999.731799 ei 0.242 es 0.000 et 0.023 er 0.004] ------- [5:0 2:0 30 2] [8] 0 0
N -t 0.434768 -n 0 -e 999.744832
N -t 0.434768 -n 5 -e 999.731670
N -t 0.434768 -n 4 -e 999.744832
N -t 0.434768 -n 7 -e 999.744832
N -t 0.434768 -n 9 -e 999.744832
N -t 0.434769 -n 8 -e 999.745340
N -t 0.434769 -n 1 -e 999.744832
N -t 0.434769 -n 6 -e 999.745340
N -t 0.434769 -n 3 -e 999.745340
N -t 0.434769 -n 10 -e 999.745340
r 0.434782450 _2_ AGT  --- 1 cbr 532 [13a 2 5 800] [energy 999.742404 ei 0.242 es 0.000 et 0.005 er 0.011] ------- [5:0 2:0 30 2] [1] 1 0
N -t 0.435482 -n 7 -e 999.744445
N -t 0.435482 -n 0 -e 999.744445
N -t 0.435483 -n 4 -e 999.744445
N -t 0.435483 -n 2 -e 999.742016
N -t 0.435483 -n 8 -e 999.744954
N -t 0.435483 -n 9 -e 999.744445
N -t 0.435483 -n 1 -e 999.744445
N -t 0.435483 -n 3 -e 999.744953
N -t 0.435483 -n 6 -e 999.744953
N -t 0.435483 -n 10 -e 999.744953
N -t 0.435845 -n 0 -e 999.744317
N -t 0.435845 -n 5 -e 999.730944
N -t 0.435845 -n 4 -e 999.744317
N -t 0.435845 -n 7 -e 999.744317
N -t 0.435846 -n 9 -e 999.744317
N -t 0.435846 -n 8 -e 999.744825
N -t 0.435846 -n 1 -e 999.744316
N -t 0.435846 -n 6 -e 999.744825
N -t 0.435846 -n 3 -e 999.744825
N -t 0.435846 -n 10 -e 999.744825
N -t 0.436159 -n 7 -e 999.742423
N -t 0.436160 -n 0 -e 999.742423
N -t 0.436160 -n 4 -e 999.742422
N -t 0.436160 -n 2 -e 999.739811
N -t 0.436160 -n 8 -e 999.742931
N -t 0.436160 -n 9 -e 999.742422
N -t 0.436160 -n 1 -e 999.742422
N -t 0.436160 -n 3 -e 999.742931
N -t 0.436160 -n 6 -e 999.742931
N -t 0.436160 -n 10 -e 999.742931
s 0.436864000 _5_ AGT  --- 9 cbr 512 [0 0 0 0] [energy 999.726218 ei 0.242 es 0.000 et 0.028 er 0.004] ------- [5:0 2:0 32 0] [9] 0 0
r 0.436864000 _5_ RTR  --- 9 cbr 512 [0 0 0 0] [energy 999.726218 ei 0.242 es 0.000 et 0.028 er 0.004] ------- [5:0 2:0 32 0] [9] 0 0
s 0.436864000 _5_ RTR  --- 9 cbr 532 [0 0 0 0] [energy 999.726218 ei 0.242 es 0.000 et 0.028 er 0.004] ------- [5:0 2:0 30 2] [9] 0 0
N -t 0.440890 -n 0 -e 999.742295
N -t 0.440890 -n 5 -e 999.726090
N -t 0.440891 -n 4 -e 999.742294
N -t 0.440891 -n 7 -e 999.742294
N -t 0.440891 -n 9 -e 999.742294
N -t 0.440891 -n 8 -e 999.742803
N -t 0.440891 -n 1 -e 999.742294
N -t 0.440891 -n 6 -e 999.742803
N -t 0.440891 -n 3 -e 999.742803
N -t 0.440892 -n 10 -e 999.742803
r 0.440904884 _2_ AGT  --- 4 cbr 532 [13a 2 5 800] [energy 999.739501 ei 0.242 es 0.000 et 0.006 er 0.013] ------- [5:0 2:0 30 2] [4] 1 0
s 0.440960000 _5_ AGT  --- 10 cbr 512 [0 0 0 0] [energy 999.726090 ei 0.242 es 0.000 et 0.028 er 0.004] ------- [5:0 2:0 32 0] [10] 0 0
r 0.440960000 _5_ RTR  --- 10 cbr 512 [0 0 0 0] [energy 999.726090 ei 0.242 es 0.000 et 0.028 er 0.004] ------- [5:0 2:0 32 0] [10] 0 0
s 0.440960000 _5_ RTR  --- 10 cbr 532 [0 0 0 0] [energy 999.726090 ei 0.242 es 0.000 et 0.028 er 0.004] ------- [5:0 2:0 30 2] [10] 0 0
N -t 0.441385 -n 7 -e 999.742040
N -t 0.441385 -n 0 -e 999.742039
N -t 0.441385 -n 4 -e 999.742039
N -t 0.441385 -n 2 -e 999.739246
N -t 0.441385 -n 8 -e 999.742548
N -t 0.441385 -n 9 -e 999.742039
N -t 0.441385 -n 1 -e 999.742039
N -t 0.441385 -n 3 -e 999.742548
N -t 0.441386 -n 6 -e 999.742548
N -t 0.441386 -n 10 -e 999.742548
N -t 0.441747 -n 0 -e 999.741912
N -t 0.441748 -n 5 -e 999.725495
N -t 0.441748 -n 4 -e 999.741911
N -t 0.441748 -n 7 -e 999.741911
N -t 0.441748 -n 9 -e 999.741911
N -t 0.441748 -n 8 -e 999.742420
N -t 0.441748 -n 1 -e 999.741911
N -t 0.441749 -n 6 -e 999.742420
N -t 0.441749 -n 3 -e 999.742420
N -t 0.441749 -n 10 -e 999.742419
N -t 0.442062 -n 7 -e 999.740017
N -t 0.442062 -n 0 -e 999.740017
N -t 0.442062 -n 4 -e 999.740017
N -t 0.442062 -n 2 -e 999.737041
N -t 0.442062 -n 8 -e 999.740526
N -t 0.442062 -n 9 -e 999.740017
N -t 0.442062 -n 1 -e 999.740017
N -t 0.442063 -n 3 -e 999.740526
N -t 0.442063 -n 6 -e 999.740526
N -t 0.442063 -n 10 -e 999.740525
s 0.445056000 _5_ AGT  --- 11 cbr 512 [0 0 0 0] [energy 999.720769 ei 0.242 es 0.000 et 0.033 er 0.004] ------- [5:0 2:0 32 0] [11] 0 0
r 0.445056000 _5_ RTR  --- 11 cbr 512 [0 0 0 0] [energy 999.720769 ei 0.242 es 0.000 et 0.033 er 0.004] ------- [5:0 2:0 32 0] [11] 0 0
s 0.445056000 _5_ RTR  --- 11 cbr 532 [0 0 0 0] [energy 999.720769 ei 0.242 es 0.000 et 0.033 er 0.004] ------- [5:0 2:0 30 2] [11] 0 0
N -t 0.446793 -n 0 -e 999.739889
N -t 0.446793 -n 5 -e 999.720641
N -t 0.446793 -n 4 -e 999.739889
N -t 0.446793 -n 7 -e 999.739889
N -t 0.446793 -n 9 -e 999.739889
N -t 0.446794 -n 8 -e 999.740397
N -t 0.446794 -n 1 -e 999.739889
N -t 0.446794 -n 6 -e 999.740397
N -t 0.446794 -n 3 -e 999.740397
N -t 0.446794 -n 10 -e 999.740397
r 0.446807323 _2_ AGT  --- 5 cbr 532 [13a 2 5 800] [energy 999.736731 ei 0.242 es 0.000 et 0.006 er 0.015] ------- [5:0 2:0 30 2] [5] 1 0
N -t 0.447227 -n 7 -e 999.739670
N -t 0.447227 -n 0 -e 999.739670
N -t 0.447228 -n 4 -e 999.739670
N -t 0.447228 -n 2 -e 999.736511
N -t 0.447228 -n 8 -e 999.740179
N -t 0.447228 -n 9 -e 999.739670
N -t 0.447228 -n 1 -e 999.739670
N -t 0.447228 -n 3 -e 999.740178
N -t 0.447228 -n 6 -e 999.740178
N -t 0.447228 -n 10 -e 999.740178
N -t 0.447590 -n 0 -e 999.739542
N -t 0.447590 -n 5 -e 999.720083
N -t 0.447590 -n 4 -e 999.739542
N -t 0.447590 -n 7 -e 999.739542
N -t 0.447590 -n 9 -e 999.739542
N -t 0.447591 -n 8 -e 999.740050
N -t 0.447591 -n 1 -e 999.739541
N -t 0.447591 -n 6 -e 999.740050
N -t 0.447591 -n 3 -e 999.740050
N -t 0.447591 -n 10 -e 999.740050
N -t 0.447904 -n 7 -e 999.737648
N -t 0.447905 -n 0 -e 999.737648
N -t 0.447905 -n 4 -e 999.737648
N -t 0.447905 -n 2 -e 999.734307
N -t 0.447905 -n 8 -e 999.738156
N -t 0.447905 -n 9 -e 999.737647
N -t 0.447905 -n 1 -e 999.737647
N -t 0.447905 -n 3 -e 999.738156
N -t 0.447905 -n 6 -e 999.738156
N -t 0.447905 -n 10 -e 999.738156
s 0.449152000 _5_ AGT  --- 12 cbr 512 [0 0 0 0] [energy 999.715357 ei 0.242 es 0.000 et 0.038 er 0.004] ------- [5:0 2:0 32 0] [12] 0 0
r 0.449152000 _5_ RTR  --- 12 cbr 512 [0 0 0 0] [energy 999.715357 ei 0.242 es 0.000 et 0.038 er 0.004] ------- [5:0 2:0 32 0] [12] 0 0
s 0.449152000 _5_ RTR  --- 12 cbr 532 [0 0 0 0] [energy 999.715357 ei 0.242 es 0.000 et 0.038 er 0.004] ------- [5:0 2:0 30 2] [12] 0 0
N -t 0.452635 -n 0 -e 999.737520
N -t 0.452635 -n 5 -e 999.715228
N -t 0.452635 -n 4 -e 999.737520
N -t 0.452635 -n 7 -e 999.737520
N -t 0.452636 -n 9 -e 999.737519
N -t 0.452636 -n 8 -e 999.738028
N -t 0.452636 -n 1 -e 999.737519
N -t 0.452636 -n 6 -e 999.738028
N -t 0.452636 -n 3 -e 999.738028
N -t 0.452637 -n 10 -e 999.738028
r 0.452649766 _2_ AGT  --- 6 cbr 532 [13a 2 5 800] [energy 999.733997 ei 0.242 es 0.000 et 0.007 er 0.017] ------- [5:0 2:0 30 2] [6] 1 0
s 0.453248000 _5_ AGT  --- 13 cbr 512 [0 0 0 0] [energy 999.715228 ei 0.242 es 0.000 et 0.038 er 0.004] ------- [5:0 2:0 32 0] [13] 0 0
r 0.453248000 _5_ RTR  --- 13 cbr 512 [0 0 0 0] [energy 999.715228 ei 0.242 es 0.000 et 0.038 er 0.004] ------- [5:0 2:0 32 0] [13] 0 0
s 0.453248000 _5_ RTR  --- 13 cbr 532 [0 0 0 0] [energy 999.715228 ei 0.242 es 0.000 et 0.038 er 0.004] ------- [5:0 2:0 30 2] [13] 0 0
N -t 0.453270 -n 7 -e 999.737181
N -t 0.453270 -n 0 -e 999.737181
N -t 0.453270 -n 4 -e 999.737180
N -t 0.453270 -n 2 -e 999.733657
N -t 0.453270 -n 8 -e 999.737689
N -t 0.453270 -n 9 -e 999.737180