s 0.600000000 _5_ AGT  --- 0 cbr 512 [0 0 0 0] [energy 1000.000000 ei 0.000 es 0.000 et 0.000 er 0.000] ------- [5:0 2:0 32 0] [0] 0 0
r 0.600000000 _5_ RTR  --- 0 cbr 512 [0 0 0 0] [energy 1000.000000 ei 0.000 es 0.000 et 0.000 er 0.000] ------- [5:0 2:0 32 0] [0] 0 0
s 0.600000000 _5_ RTR  --- 0 AODV 48 [0 0 0 0] [energy 1000.000000 ei 0.000 es 0.000 et 0.000 er 0.000] ------- [5:255 -1:255 30 0] [0x2 1 1 [2 0] [5 4]] (REQUEST)
N -t 0.600535 -n 10 -e 999.639340
N -t 0.600535 -n 6 -e 999.639340
N -t 0.600535 -n 4 -e 999.639340
N -t 0.600535 -n 7 -e 999.639340
N -t 0.600536 -n 1 -e 999.639339
N -t 0.600536 -n 9 -e 999.639339
N -t 0.600536 -n 0 -e 999.639339
N -t 0.600536 -n 3 -e 999.639339
N -t 0.600536 -n 8 -e 999.639339
N -t 0.600536 -n 2 -e 999.639339
r 0.601408066 _10_ RTR  --- 0 AODV 48 [0 ffffffff 5 800] [energy 999.639340 ei 0.360 es 0.000 et 0.000 er 0.000] ------- [5:255 -1:255 30 0] [0x2 1 1 [2 0] [5 4]] (REQUEST)
r 0.601408233 _6_ RTR  --- 0 AODV 48 [0 ffffffff 5 800] [energy 999.639340 ei 0.360 es 0.000 et 0.000 er 0.000] ------- [5:255 -1:255 30 0] [0x2 1 1 [2 0] [5 4]] (REQUEST)
r 0.601408327 _4_ RTR  --- 0 AODV 48 [0 ffffffff 5 800] [energy 999.639340 ei 0.360 es 0.000 et 0.000 er 0.000] ------- [5:255 -1:255 30 0] [0x2 1 1 [2 0] [5 4]] (REQUEST)
r 0.601408394 _7_ RTR  --- 0 AODV 48 [0 ffffffff 5 800] [energy 999.639340 ei 0.360 es 0.000 et 0.000 er 0.000] ------- [5:255 -1:255 30 0] [0x2 1 1 [2 0] [5 4]] (REQUEST)
r 0.601408501 _1_ RTR  --- 0 AODV 48 [0 ffffffff 5 800] [energy 999.639339 ei 0.360 es 0.000 et 0.000 er 0.000] ------- [5:255 -1:255 30 0] [0x2 1 1 [2 0] [5 4]] (REQUEST)
r 0.601408544 _9_ RTR  --- 0 AODV 48 [0 ffffffff 5 800] [energy 999.639339 ei 0.360 es 0.000 et 0.000 er 0.000] ------- [5:255 -1:255 30 0] [0x2 1 1 [2 0] [5 4]] (REQUEST)
r 0.601408729 _0_ RTR  --- 0 AODV 48 [0 ffffffff 5 800] [energy 999.639339 ei 0.360 es 0.000 et 0.000 er 0.000] ------- [5:255 -1:255 30 0] [0x2 1 1 [2 0] [5 4]] (REQUEST)
s 0.601550113 _10_ RTR  --- 0 AODV 48 [0 ffffffff 5 800] [energy 999.639340 ei 0.360 es 0.000 et 0.000 er 0.000] ------- [10:255 -1:255 29 0] [0x2 2 1 [2 0] [5 4]] (REQUEST)
N -t 0.601985 -n 5 -e 999.638130
N -t 0.601985 -n 6 -e 999.638639
N -t 0.601985 -n 4 -e 999.638639
N -t 0.601985 -n 7 -e 999.638639
N -t 0.601986 -n 1 -e 999.638639
N -t 0.601986 -n 9 -e 999.638639
N -t 0.601986 -n 0 -e 999.638639
N -t 0.601986 -n 3 -e 999.638639
N -t 0.601986 -n 8 -e 999.638639
N -t 0.601986 -n 2 -e 999.638639
s 0.602289460 _6_ RTR  --- 0 AODV 48 [0 ffffffff 5 800] [energy 999.638639 ei 0.361 es 0.000 et 0.000 er 0.001] ------- [6:255 -1:255 29 0] [0x2 2 1 [2 0] [5 4]] (REQUEST)
r 0.602858179 _5_ RTR  --- 0 AODV 48 [0 ffffffff a 800] [energy 999.638130 ei 0.361 es 0.000 et 0.001 er 0.000] ------- [10:255 -1:255 29 0] [0x2 2 1 [2 0] [5 4]] (REQUEST)
r 0.602858314 _6_ RTR  --- 0 AODV 48 [0 ffffffff a 800] [energy 999.638639 ei 0.361 es 0.000 et 0.000 er 0.001] ------- [10:255 -1:255 29 0] [0x2 2 1 [2 0] [5 4]] (REQUEST)
r 0.602858439 _4_ RTR  --- 0 AODV 48 [0 ffffffff a 800] [energy 999.638639 ei 0.361 es 0.000 et 0.000 er 0.001] ------- [10:255 -1:255 29 0] [0x2 2 1 [2 0] [5 4]] (REQUEST)
r 0.602858461 _7_ RTR  --- 0 AODV 48 [0 ffffffff a 800] [energy 999.638639 ei 0.361 es 0.000 et 0.000 er 0.001] ------- [10:255 -1:255 29 0] [0x2 2 1 [2 0] [5 4]] (REQUEST)
r 0.602858581 _1_ RTR  --- 0 AODV 48 [0 ffffffff a 800] [energy 999.638639 ei 0.361 es 0.000 et 0.000 er 0.001] ------- [10:255 -1:255 29 0] [0x2 2 1 [2 0] [5 4]] (REQUEST)
r 0.602858680 _9_ RTR  --- 0 AODV 48 [0 ffffffff a 800] [energy 999.638639 ei 0.361 es 0.000 et 0.000 er 0.001] ------- [10:255 -1:255 29 0] [0x2 2 1 [2 0] [5 4]] (REQUEST)
r 0.602858800 _0_ RTR  --- 0 AODV 48 [0 ffffffff a 800] [energy 999.638639 ei 0.361 es 0.000 et 0.000 er 0.001] ------- [10:255 -1:255 29 0] [0x2 2 1 [2 0] [5 4]] (REQUEST)
r 0.602858925 _3_ RTR  --- 0 AODV 48 [0 ffffffff a 800] [energy 999.638639 ei 0.361 es 0.000 et 0.000 er 0.001] ------- [10:255 -1:255 29 0] [0x2 2 1 [2 0] [5 4]] (REQUEST)
N -t 0.603143 -n 4 -e 999.638114
N -t 0.603144 -n 10 -e 999.637605
N -t 0.603144 -n 5 -e 999.637605
N -t 0.603144 -n 9 -e 999.638114
N -t 0.603144 -n 7 -e 999.638114
N -t 0.603144 -n 0 -e 999.638114
N -t 0.603144 -n 1 -e 999.638114
N -t 0.603144 -n 3 -e 999.638114
N -t 0.603144 -n 8 -e 999.638114
N -t 0.603144 -n 2 -e 999.638113
s 0.603754746 _0_ RTR  --- 0 AODV 48 [0 ffffffff 5 800] [energy 999.638114 ei 0.361 es 0.000 et 0.000 er 0.001] ------- [0:255 -1:255 29 0] [0x2 2 1 [2 0] [5 4]] (REQUEST)
r 0.604016483 _4_ RTR  --- 0 AODV 48 [0 ffffffff 6 800] [energy 999.638114 ei 0.361 es 0.000 et 0.000 er 0.001] ------- [6:255 -1:255 29 0] [0x2 2 1 [2 0] [5 4]] (REQUEST)
r 0.604016515 _10_ RTR  --- 0 AODV 48 [0 ffffffff 6 800] [energy 999.637605 ei 0.361 es 0.000 et 0.001 er 0.001] ------- [6:255 -1:255 29 0] [0x2 2 1 [2 0] [5 4]] (REQUEST)
r 0.604016547 _5_ RTR  --- 0 AODV 48 [0 ffffffff 6 800] [energy 999.637605 ei 0.361 es 0.000 et 0.001 er 0.001] ------- [6:255 -1:255 29 0] [0x2 2 1 [2 0] [5 4]] (REQUEST)
r 0.604016761 _9_ RTR  --- 0 AODV 48 [0 ffffffff 6 800] [energy 999.638114 ei 0.361 es 0.000 et 0.000 er 0.001] ------- [6:255 -1:255 29 0] [0x2 2 1 [2 0] [5 4]] (REQUEST)
r 0.604016794 _7_ RTR  --- 0 AODV 48 [0 ffffffff 6 800] [energy 999.638114 ei 0.361 es 0.000 et 0.000 er 0.001] ------- [6:255 -1:255 29 0] [0x2 2 1 [2 0] [5 4]] (REQUEST)
r 0.604016811 _0_ RTR  --- 0 AODV 48 [0 ffffffff 6 800] [energy 999.638114 ei 0.361 es 0.000 et 0.000 er 0.001] ------- [6:255 -1:255 29 0] [0x2 2 1 [2 0] [5 4]] (REQUEST)
r 0.604016937 _1_ RTR  --- 0 AODV 48 [0 ffffffff 6 800] [energy 999.638114 ei 0.361 es 0.000 et 0.000 er 0.001] ------- [6:255 -1:255 29 0] [0x2 2 1 [2 0] [5 4]] (REQUEST)
r 0.604017146 _3_ RTR  --- 0 AODV 48 [0 ffffffff 6 800] [energy 999.638114 ei 0.361 es 0.000 et 0.000 er 0.001] ------- [6:255 -1:255 29 0] [0x2 2 1 [2 0] [5 4]] (REQUEST)
s 0.604096000 _5_ AGT  --- 1 cbr 512 [0 0 0 0] [energy 999.637605 ei 0.361 es 0.000 et 0.001 er 0.001] ------- [5:0 2:0 32 0] [1] 0 0
r 0.604096000 _5_ RTR  --- 1 cbr 512 [0 0 0 0] [energy 999.637605 ei 0.361 es 0.000 et 0.001 er 0.001] ------- [5:0 2:0 32 0] [1] 0 0
s 0.604500379 _3_ RTR  --- 0 AODV 48 [0 ffffffff a 800] [energy 999.638114 ei 0.361 es 0.000 et 0.000 er 0.001] ------- [3:255 -1:255 28 0] [0x2 3 1 [2 0] [5 4]] (REQUEST)
s 0.604538118 _1_ RTR  --- 0 AODV 48 [0 ffffffff 5 800] [energy 999.638114 ei 0.361 es 0.000 et 0.000 er 0.001] ------- [1:255 -1:255 29 0] [0x2 2 1 [2 0] [5 4]] (REQUEST)
N -t 0.604582 -n 4 -e 999.637420
N -t 0.604582 -n 6 -e 999.636911
N -t 0.604582 -n 9 -e 999.637420
N -t 0.604582 -n 8 -e 999.637420
N -t 0.604582 -n 10 -e 999.636911
N -t 0.604583 -n 5 -e 999.636911
N -t 0.604583 -n 7 -e 999.637420
N -t 0.604583 -n 3 -e 999.637420
N -t 0.604583 -n 1 -e 999.637420
N -t 0.604583 -n 2 -e 999.637420
r 0.605455304 _4_ RTR  --- 0 AODV 48 [0 ffffffff 0 800] [energy 999.637420 ei 0.361 es 0.000 et 0.000 er 0.001] ------- [0:255 -1:255 29 0] [0x2 2 1 [2 0] [5 4]] (REQUEST)
r 0.605455308 _6_ RTR  --- 0 AODV 48 [0 ffffffff 0 800] [energy 999.636911 ei 0.361 es 0.000 et 0.001 er 0.001] ------- [0:255 -1:255 29 0] [0x2 2 1 [2 0] [5 4]] (REQUEST)
r 0.605455453 _9_ RTR  --- 0 AODV 48 [0 ffffffff 0 800] [energy 999.637420 ei 0.361 es 0.000 et 0.000 er 0.001] ------- [0:255 -1:255 29 0] [0x2 2 1 [2 0] [5 4]] (REQUEST)
r 0.605455458 _8_ RTR  --- 0 AODV 48 [0 ffffffff 0 800] [energy 999.637420 ei 0.361 es 0.000 et 0.000 er 0.001] ------- [0:255 -1:255 29 0] [0x2 2 1 [2 0] [5 4]] (REQUEST)
r 0.605455498 _10_ RTR  --- 0 AODV 48 [0 ffffffff 0 800] [energy 999.636911 ei 0.361 es 0.000 et 0.001 er 0.001] ------- [0:255 -1:255 29 0] [0x2 2 1 [2 0] [5 4]] (REQUEST)
r 0.605455540 _5_ RTR  --- 0 AODV 48 [0 ffffffff 0 800] [energy 999.636911 ei 0.361 es 0.000 et 0.001 er 0.001] ------- [0:255 -1:255 29 0] [0x2 2 1 [2 0] [5 4]] (REQUEST)
s 0.605820061 _4_ RTR  --- 0 AODV 48 [0 ffffffff 5 800] [energy 999.637420 ei 0.361 es 0.000 et 0.000 er 0.001] ------- [4:255 -1:255 29 0] [0x2 2 1 [2 0] [5 4]] (REQUEST)
N -t 0.606085 -n 7 -e 999.636688
N -t 0.606085 -n 10 -e 999.636179
N -t 0.606085 -n 5 -e 999.636179
N -t 0.606085 -n 2 -e 999.636688
N -t 0.606085 -n 3 -e 999.636688
N -t 0.606085 -n 6 -e 999.636179
N -t 0.606086 -n 4 -e 999.636688
N -t 0.606086 -n 8 -e 999.636688
N -t 0.606086 -n 0 -e 999.636179
N -t 0.606086 -n 9 -e 999.636688
r 0.606957957 _7_ RTR  --- 0 AODV 48 [0 ffffffff 1 800] [energy 999.636688 ei 0.362 es 0.000 et 0.000 er 0.002] ------- [1:255 -1:255 29 0] [0x2 2 1 [2 0] [5 4]] (REQUEST)
r 0.606958271 _10_ RTR  --- 0 AODV 48 [0 ffffffff 1 800] [energy 999.636179 ei 0.362 es 0.000 et 0.001 er 0.001] ------- [1:255 -1:255 29 0] [0x2 2 1 [2 0] [5 4]] (REQUEST)
r 0.606958304 _5_ RTR  --- 0 AODV 48 [0 ffffffff 1 800] [energy 999.636179 ei 0.362 es 0.000 et 0.001 er 0.001] ------- [1:255 -1:255 29 0] [0x2 2 1 [2 0] [5 4]] (REQUEST)
r 0.606958304 _2_ RTR  --- 0 AODV 48 [0 ffffffff 1 800] [energy 999.636688 ei 0.362 es 0.000 et 0.000 er 0.002] ------- [1:255 -1:255 29 0] [0x2 2 1 [2 0] [5 4]] (REQUEST)
s 0.606958304 _2_ RTR  --- 0 AODV 44 [0 0 0 0] [energy 999.636688 ei 0.362 es 0.000 et 0.000 er 0.002] ------- [2:255 5:255 30 1] [0x4 1 [2 4] 10.000000] (REPLY)
r 0.606958385 _3_ RTR  --- 0 AODV 48 [0 ffffffff 1 800] [energy 999.636688 ei 0.362 es 0.000 et 0.000 er 0.002] ------- [1:255 -1:255 29 0] [0x2 2 1 [2 0] [5 4]] (REQUEST)
r 0.606958426 _6_ RTR  --- 0 AODV 48 [0 ffffffff 1 800] [energy 999.636179 ei 0.362 es 0.000 et 0.001 er 0.001] ------- [1:255 -1:255 29 0] [0x2 2 1 [2 0] [5 4]] (REQUEST)
r 0.606958584 _4_ RTR  --- 0 AODV 48 [0 ffffffff 1 800] [energy 999.636688 ei 0.362 es 0.000 et 0.000 er 0.002] ------- [1:255 -1:255 29 0] [0x2 2 1 [2 0] [5 4]] (REQUEST)
N -t 0.607104 -n 8 -e 999.636247
N -t 0.607104 -n 7 -e 999.636246
N -t 0.607104 -n 1 -e 999.635738
N -t 0.607104 -n 2 -e 999.636246
N -t 0.607104 -n 10 -e 999.635737
N -t 0.607104 -n 6 -e 999.635737
N -t 0.607104 -n 5 -e 999.635737
N -t 0.607104 -n 0 -e 999.635737
N -t 0.607104 -n 4 -e 999.636246
N -t 0.607105 -n 9 -e 999.636246
s 0.607203511 _8_ RTR  --- 0 AODV 48 [0 ffffffff 0 800] [energy 999.636247 ei 0.362 es 0.000 et 0.000 er 0.002] ------- [8:255 -1:255 28 0] [0x2 3 1 [2 0] [5 4]] (REQUEST)
r 0.607976820 _8_ RTR  --- 0 AODV 48 [0 ffffffff 3 800] [energy 999.636247 ei 0.362 es 0.000 et 0.000 er 0.002] ------- [3:255 -1:255 28 0] [0x2 3 1 [2 0] [5 4]] (REQUEST)
r 0.607976930 _7_ RTR  --- 0 AODV 48 [0 ffffffff 3 800] [energy 999.636246 ei 0.362 es 0.000 et 0.000 er 0.002] ------- [3:255 -1:255 28 0] [0x2 3 1 [2 0] [5 4]] (REQUEST)
r 0.607976967 _1_ RTR  --- 0 AODV 48 [0 ffffffff 3 800] [energy 999.635738 ei 0.362 es 0.000 et 0.001 er 0.002] ------- [3:255 -1:255 28 0] [0x2 3 1 [2 0] [5 4]] (REQUEST)
r 0.607977013 _2_ RTR  --- 0 AODV 48 [0 ffffffff 3 800] [energy 999.636246 ei 0.362 es 0.000 et 0.000 er 0.002] ------- [3:255 -1:255 28 0] [0x2 3 1 [2 0] [5 4]] (REQUEST)
r 0.607977198 _10_ RTR  --- 0 AODV 48 [0 ffffffff 3 800] [energy 999.635737 ei 0.362 es 0.000 et 0.001 er 0.002] ------- [3:255 -1:255 28 0] [0x2 3 1 [2 0] [5 4]] (REQUEST)
r 0.607977217 _6_ RTR  --- 0 AODV 48 [0 ffffffff 3 800] [energy 999.635737 ei 0.362 es 0.000 et 0.001 er 0.002] ------- [3:255 -1:255 28 0] [0x2 3 1 [2 0] [5 4]] (REQUEST)
N -t 0.608123 -n 1 -e 999.635360
N -t 0.608123 -n 7 -e 999.635869
N -t 0.608123 -n 3 -e 999.635360
N -t 0.608123 -n 10 -e 999.635360
N -t 0.608123 -n 5 -e 999.635360
N -t 0.608123 -n 8 -e 999.635869
N -t 0.608123 -n 6 -e 999.635360
N -t 0.608123 -n 4 -e 999.635868
N -t 0.608123 -n 0 -e 999.635360
N -t 0.608124 -n 9 -e 999.635868
s 0.608192000 _5_ AGT  --- 2 cbr 512 [0 0 0 0] [energy 999.635360 ei 0.362 es 0.000 et 0.001 er 0.002] ------- [5:0 2:0 32 0] [2] 0 0
r 0.608192000 _5_ RTR  --- 2 cbr 512 [0 0 0 0] [energy 999.635360 ei 0.362 es 0.000 et 0.001 er 0.002] ------- [5:0 2:0 32 0] [2] 0 0
N -t 0.608941 -n 7 -e 999.635650
N -t 0.608941 -n 10 -e 999.635141
N -t 0.608941 -n 5 -e 999.635141
N -t 0.608941 -n 2 -e 999.635237
N -t 0.608941 -n 3 -e 999.635141
N -t 0.608941 -n 6 -e 999.635141
N -t 0.608941 -n 4 -e 999.635650
N -t 0.608941 -n 8 -e 999.635650
N -t 0.608942 -n 0 -e 999.635141
N -t 0.608942 -n 9 -e 999.635649
N -t 0.609304 -n 1 -e 999.634802
N -t 0.609304 -n 7 -e 999.635522
N -t 0.609304 -n 3 -e 999.635013
N -t 0.609304 -n 10 -e 999.635013
N -t 0.609304 -n 5 -e 999.635013
N -t 0.609304 -n 8 -e 999.635522
N -t 0.609304 -n 6 -e 999.635013
N -t 0.609304 -n 4 -e 999.635521
N -t 0.609304 -n 0 -e 999.635013
N -t 0.609305 -n 9 -e 999.635521
s 0.609399948 _7_ RTR  --- 0 AODV 48 [0 ffffffff 5 800] [energy 999.635522 ei 0.362 es 0.000 et 0.000 er 0.003] ------- [7:255 -1:255 29 0] [0x2 2 1 [2 0] [5 4]] (REQUEST)
s 0.609573305 _9_ RTR  --- 0 AODV 48 [0 ffffffff 5 800] [energy 999.635521 ei 0.362 es 0.000 et 0.000 er 0.003] ------- [9:255 -1:255 29 0] [0x2 2 1 [2 0] [5 4]] (REQUEST)
N -t 0.609618 -n 7 -e 999.635241
N -t 0.609618 -n 10 -e 999.634732
N -t 0.609618 -n 5 -e 999.634732
N -t 0.609618 -n 2 -e 999.634645
N -t 0.609618 -n 3 -e 999.634732
N -t 0.609618 -n 6 -e 999.634732
N -t 0.609618 -n 4 -e 999.635240
N -t 0.609618 -n 8 -e 999.635240
N -t 0.609619 -n 0 -e 999.634731
N -t 0.609619 -n 9 -e 999.635240
N -t 0.610317 -n 1 -e 999.633980
N -t 0.610317 -n 7 -e 999.635112
N -t 0.610317 -n 3 -e 999.634604
N -t 0.610317 -n 10 -e 999.634603
N -t 0.610317 -n 5 -e 999.634603
N -t 0.610317 -n 8 -e 999.635112
N -t 0.610317 -n 6 -e 999.634603
N -t 0.610317 -n 4 -e 999.635112
N -t 0.610317 -n 0 -e 999.634603
N -t 0.610318 -n 9 -e 999.635112
N -t 0.610831 -n 1 -e 999.633713
N -t 0.610831 -n 7 -e 999.634846
N -t 0.610831 -n 3 -e 999.634337
N -t 0.610831 -n 10 -e 999.634337
N -t 0.610831 -n 5 -e 999.634337
N -t 0.610831 -n 8 -e 999.634845
N -t 0.610831 -n 6 -e 999.634337
N -t 0.610831 -n 4 -e 999.634845
N -t 0.610831 -n 0 -e 999.634336
N -t 0.610832 -n 9 -e 999.634845
N -t 0.611193 -n 7 -e 999.634718
N -t 0.611193 -n 10 -e 999.634209
N -t 0.611193 -n 5 -e 999.634209
N -t 0.611193 -n 2 -e 999.633729
N -t 0.611193 -n 3 -e 999.634209
N -t 0.611193 -n 6 -e 999.634209
N -t 0.611193 -n 4 -e 999.634718
N -t 0.611193 -n 8 -e 999.634718
N -t 0.611194 -n 0 -e 999.634209
N -t 0.611194 -n 9 -e 999.634717
N -t 0.611508 -n 1 -e 999.633070
N -t 0.611508 -n 7 -e 999.634385
N -t 0.611508 -n 3 -e 999.633876
N -t 0.611508 -n 10 -e 999.633876
N -t 0.611508 -n 5 -e 999.633876
N -t 0.611508 -n 8 -e 999.634385
N -t 0.611508 -n 6 -e 999.633876
N -t 0.611508 -n 4 -e 999.634385
N -t 0.611508 -n 0 -e 999.633876
N -t 0.611509 -n 9 -e 999.634384
s 0.612288000 _5_ AGT  --- 3 cbr 512 [0 0 0 0] [energy 999.633876 ei 0.362 es 0.000 et 0.001 er 0.003] ------- [5:0 2:0 32 0] [3] 0 0
r 0.612288000 _5_ RTR  --- 3 cbr 512 [0 0 0 0] [energy 999.633876 ei 0.362 es 0.000 et 0.001 er 0.003] ------- [5:0 2:0 32 0] [3] 0 0
N -t 0.612334 -n 7 -e 999.634257
N -t 0.612334 -n 10 -e 999.633748
N -t 0.612334 -n 5 -e 999.633748
N -t 0.612334 -n 2 -e 999.632779
N -t 0.612334 -n 3 -e 999.633748
N -t 0.612334 -n 6 -e 999.633748
N -t 0.612334 -n 4 -e 999.634257
N -t 0.612334 -n 8 -e 999.634257
N -t 0.612335 -n 0 -e 999.633748
N -t 0.612335 -n 9 -e 999.634257
r 0.612348520 _1_ RTR  --- 0 AODV 44 [13a 1 2 800] [energy 999.632760 ei 0.362 es 0.000 et 0.002 er 0.003] ------- [2:255 5:255 30 1] [0x4 1 [2 4] 10.000000] (REPLY)
f 0.612348520 _1_ RTR  --- 0 AODV 44 [13a 1 2 800] [energy 999.632760 ei 0.362 es 0.000 et 0.002 er 0.003] ------- [2:255 5:255 29 5] [0x4 2 [2 4] 10.000000] (REPLY)
N -t 0.612778 -n 6 -e 999.633325
N -t 0.612779 -n 9 -e 999.633834
N -t 0.612779 -n 10 -e 999.633325
N -t 0.612779 -n 5 -e 999.633325
N -t 0.612779 -n 0 -e 999.633325
N -t 0.612779 -n 7 -e 999.633833
N -t 0.612779 -n 1 -e 999.632336
N -t 0.612779 -n 8 -e 999.633833
N -t 0.612779 -n 3 -e 999.633324
N -t 0.612780 -n 2 -e 999.632355
r 0.613651455 _6_ RTR  --- 0 AODV 48 [0 ffffffff 4 800] [energy 999.633325 ei 0.362 es 0.000 et 0.001 er 0.004] ------- [4:255 -1:255 29 0] [0x2 2 1 [2 0] [5 4]] (REQUEST)
r 0.613651567 _9_ RTR  --- 0 AODV 48 [0 ffffffff 4 800] [energy 999.633834 ei 0.362 es 0.000 et 0.000 er 0.004] ------- [4:255 -1:255 29 0] [0x2 2 1 [2 0] [5 4]] (REQUEST)
r 0.613651613 _10_ RTR  --- 0 AODV 48 [0 ffffffff 4 800] [energy 999.633325 ei 0.362 es 0.000 et 0.001 er 0.004] ------- [4:255 -1:255 29 0] [0x2 2 1 [2 0] [5 4]] (REQUEST)
r 0.613651614 _5_ RTR  --- 0 AODV 48 [0 ffffffff 4 800] [energy 999.633325 ei 0.362 es 0.000 et 0.001 er 0.004] ------- [4:255 -1:255 29 0] [0x2 2 1 [2 0] [5 4]] (REQUEST)
r 0.613651780 _0_ RTR  --- 0 AODV 48 [0 ffffffff 4 800] [energy 999.633325 ei 0.362 es 0.000 et 0.001 er 0.004] ------- [4:255 -1:255 29 0] [0x2 2 1 [2 0] [5 4]] (REQUEST)
r 0.613651930 _7_ RTR  --- 0 AODV 48 [0 ffffffff 4 800] [energy 999.633833 ei 0.362 es 0.000 et 0.000 er 0.004] ------- [4:255 -1:255 29 0] [0x2 2 1 [2 0] [5 4]] (REQUEST)
r 0.613652068 _1_ RTR  --- 0 AODV 48 [0 ffffffff 4 800] [energy 999.632336 ei 0.362 es 0.000 et 0.002 er 0.003] ------- [4:255 -1:255 29 0] [0x2 2 1 [2 0] [5 4]] (REQUEST)
N -t 0.613857 -n 4 -e 999.632847
N -t 0.613857 -n 6 -e 999.632847
N -t 0.613857 -n 5 -e 999.632847
N -t 0.613857 -n 10 -e 999.632847
N -t 0.613857 -n 0 -e 999.632847
N -t 0.613857 -n 7 -e 999.633356
N -t 0.613858 -n 1 -e 999.631858
N -t 0.613858 -n 8 -e 999.633356
N -t 0.613858 -n 3 -e 999.632847
N -t 0.613858 -n 2 -e 999.631877
r 0.614729847 _4_ RTR  --- 0 AODV 48 [0 ffffffff 9 800] [energy 999.632847 ei 0.362 es 0.000 et 0.001 er 0.004] ------- [9:255 -1:255 29 0] [0x2 2 1 [2 0] [5 4]] (REQUEST)
r 0.614730014 _6_ RTR  --- 0 AODV 48 [0 ffffffff 9 800] [energy 999.632847 ei 0.362 es 0.000 et 0.001 er 0.004] ------- [9:255 -1:255 29 0] [0x2 2 1 [2 0] [5 4]] (REQUEST)
r 0.614730111 _5_ RTR  --- 0 AODV 48 [0 ffffffff 9 800] [energy 999.632847 ei 0.362 es 0.000 et 0.001 er 0.004] ------- [9:255 -1:255 29 0] [0x2 2 1 [2 0] [5 4]] (REQUEST)
r 0.614730134 _10_ RTR  --- 0 AODV 48 [0 ffffffff 9 800] [energy 999.632847 ei 0.362 es 0.000 et 0.001 er 0.004] ------- [9:255 -1:255 29 0] [0x2 2 1 [2 0] [5 4]] (REQUEST)
r 0.614730209 _0_ RTR  --- 0 AODV 48 [0 ffffffff 9 800] [energy 999.632847 ei 0.362 es 0.000 et 0.001 er 0.004] ------- [9:255 -1:255 29 0] [0x2 2 1 [2 0] [5 4]] (REQUEST)
N -t 0.615140 -n 1 -e 999.631259
N -t 0.615140 -n 10 -e 999.632247
N -t 0.615140 -n 5 -e 999.632247
N -t 0.615140 -n 6 -e 999.632247
N -t 0.615140 -n 3 -e 999.632247
N -t 0.615140 -n 2 -e 999.631278
N -t 0.615140 -n 4 -e 999.632247
N -t 0.615140 -n 8 -e 999.632756
N -t 0.615140 -n 0 -e 999.632247
N -t 0.615140 -n 9 -e 999.632247
r 0.616012628 _1_ RTR  --- 0 AODV 48 [0 ffffffff 7 800] [energy 999.631259 ei 0.363 es 0.000 et 0.002 er 0.004] ------- [7:255 -1:255 29 0] [0x2 2 1 [2 0] [5 4]] (REQUEST)
r 0.616012822 _10_ RTR  --- 0 AODV 48 [0 ffffffff 7 800] [energy 999.632247 ei 0.363 es 0.000 et 0.001 er 0.004] ------- [7:255 -1:255 29 0] [0x2 2 1 [2 0] [5 4]] (REQUEST)
r 0.616012868 _5_ RTR  --- 0 AODV 48 [0 ffffffff 7 800] [energy 999.632247 ei 0.363 es 0.000 et 0.001 er 0.004] ------- [7:255 -1:255 29 0] [0x2 2 1 [2 0] [5 4]] (REQUEST)
r 0.616012954 _6_ RTR  --- 0 AODV 48 [0 ffffffff 7 800] [energy 999.632247 ei 0.363 es 0.000 et 0.001 er 0.004] ------- [7:255 -1:255 29 0] [0x2 2 1 [2 0] [5 4]] (REQUEST)
r 0.616013018 _3_ RTR  --- 0 AODV 48 [0 ffffffff 7 800] [energy 999.632247 ei 0.363 es 0.000 et 0.001 er 0.004] ------- [7:255 -1:255 29 0] [0x2 2 1 [2 0] [5 4]] (REQUEST)
r 0.616013099 _2_ RTR  --- 0 AODV 48 [0 ffffffff 7 800] [energy 999.631278 ei 0.363 es 0.000 et 0.002 er 0.004] ------- [7:255 -1:255 29 0] [0x2 2 1 [2 0] [5 4]] (REQUEST)
r 0.616013117 _4_ RTR  --- 0 AODV 48 [0 ffffffff 7 800] [energy 999.632247 ei 0.363 es 0.000 et 0.001 er 0.004] ------- [7:255 -1:255 29 0] [0x2 2 1 [2 0] [5 4]] (REQUEST)
r 0.616013278 _8_ RTR  --- 0 AODV 48 [0 ffffffff 7 800] [energy 999.632756 ei 0.363 es 0.000 et 0.000 er 0.005] ------- [7:255 -1:255 29 0] [0x2 2 1 [2 0] [5 4]] (REQUEST)
N -t 0.616119 -n 3 -e 999.631830
N -t 0.616119 -n 0 -e 999.631829
N -t 0.616119 -n 7 -e 999.631829
N -t 0.616119 -n 6 -e 999.631829
N -t 0.616119 -n 1 -e 999.630840
N -t 0.616119 -n 10 -e 999.631829
N -t 0.616119 -n 4 -e 999.631829
N -t 0.616119 -n 5 -e 999.631829
N -t 0.616119 -n 2 -e 999.630860
N -t 0.616119 -n 9 -e 999.631829
s 0.616384000 _5_ AGT  --- 4 cbr 512 [0 0 0 0] [energy 999.631829 ei 0.363 es 0.000 et 0.001 er 0.005] ------- [5:0 2:0 32 0] [4] 0 0
r 0.616384000 _5_ RTR  --- 4 cbr 512 [0 0 0 0] [energy 999.631829 ei 0.363 es 0.000 et 0.001 er 0.005] ------- [5:0 2:0 32 0] [4] 0 0
r 0.616991714 _3_ RTR  --- 0 AODV 48 [0 ffffffff 8 800] [energy 999.631830 ei 0.363 es 0.000 et 0.001 er 0.005] ------- [8:255 -1:255 28 0] [0x2 3 1 [2 0] [5 4]] (REQUEST)
r 0.616991925 _0_ RTR  --- 0 AODV 48 [0 ffffffff 8 800] [energy 999.631829 ei 0.363 es 0.000 et 0.001 er 0.005] ------- [8:255 -1:255 28 0] [0x2 3 1 [2 0] [5 4]] (REQUEST)
r 0.616992083 _7_ RTR  --- 0 AODV 48 [0 ffffffff 8 800] [energy 999.631829 ei 0.363 es 0.000 et 0.001 er 0.005] ------- [8:255 -1:255 28 0] [0x2 3 1 [2 0] [5 4]] (REQUEST)
N -t 0.617441 -n 7 -e 999.631270
N -t 0.617442 -n 10 -e 999.631269
N -t 0.617442 -n 5 -e 999.631269
N -t 0.617442 -n 2 -e 999.630300
N -t 0.617442 -n 3 -e 999.631269
N -t 0.617442 -n 6 -e 999.631269
N -t 0.617442 -n 4 -e 999.631269
N -t 0.617442 -n 8 -e 999.631269
N -t 0.617442 -n 0 -e 999.631269
N -t 0.617442 -n 9 -e 999.631269
N -t 0.618325 -n 10 -e 999.631012
N -t 0.618325 -n 6 -e 999.631011
N -t 0.618325 -n 4 -e 999.631011
N -t 0.618325 -n 7 -e 999.631011
N -t 0.618325 -n 1 -e 999.629610
N -t 0.618325 -n 9 -e 999.631011
N -t 0.618325 -n 0 -e 999.631011
N -t 0.618326 -n 3 -e 999.631011
N -t 0.618326 -n 8 -e 999.631011
N -t 0.618326 -n 2 -e 999.630041
N -t 0.618687 -n 7 -e 999.630884
N -t 0.618688 -n 10 -e 999.630883
N -t 0.618688 -n 5 -e 999.630672
N -t 0.618688 -n 2 -e 999.629914
N -t 0.618688 -n 3 -e 999.630883
N -t 0.618688 -n 6 -e 999.630883
N -t 0.618688 -n 4 -e 999.630883
N -t 0.618688 -n 8 -e 999.630883
N -t 0.618688 -n 0 -e 999.630883
N -t 0.618688 -n 9 -e 999.630883
N -t 0.619002 -n 10 -e 999.630602
N -t 0.619002 -n 6 -e 999.630602
N -t 0.619002 -n 4 -e 999.630602
N -t 0.619002 -n 7 -e 999.630602
N -t 0.619002 -n 1 -e 999.629018
N -t 0.619002 -n 9 -e 999.630602
N -t 0.619002 -n 0 -e 999.630602
N -t 0.619003 -n 3 -e 999.630602
N -t 0.619003 -n 8 -e 999.630602
N -t 0.619003 -n 2 -e 999.629632
N -t 0.619700 -n 7 -e 999.630474
N -t 0.619701 -n 10 -e 999.630474
N -t 0.619701 -n 5 -e 999.629850
N -t 0.619701 -n 2 -e 999.629504
N -t 0.619701 -n 3 -e 999.630474
N -t 0.619701 -n 6 -e 999.630474
N -t 0.619701 -n 4 -e 999.630474
N -t 0.619701 -n 8 -e 999.630474
N -t 0.619701 -n 0 -e 999.630474
N -t 0.619701 -n 9 -e 999.630474
N -t 0.620274 -n 7 -e 999.630171
N -t 0.620275 -n 10 -e 999.630171
N -t 0.620275 -n 5 -e 999.629547
N -t 0.620275 -n 2 -e 999.629202
N -t 0.620275 -n 3 -e 999.630171
N -t 0.620275 -n 6 -e 999.630171
N -t 0.620275 -n 4 -e 999.630171
N -t 0.620275 -n 8 -e 999.630171
N -t 0.620275 -n 0 -e 999.630171
N -t 0.620275 -n 9 -e 999.630171
s 0.620480000 _5_ AGT  --- 5 cbr 512 [0 0 0 0] [energy 999.629547 ei 0.363 es 0.000 et 0.002 er 0.005] ------- [5:0 2:0 32 0] [5] 0 0
r 0.620480000 _5_ RTR  --- 5 cbr 512 [0 0 0 0] [energy 999.629547 ei 0.363 es 0.000 et 0.002 er 0.005] ------- [5:0 2:0 32 0] [5] 0 0
N -t 0.620637 -n 10 -e 999.630044
N -t 0.620637 -n 6 -e 999.630043
N -t 0.620637 -n 4 -e 999.630043
N -t 0.620637 -n 7 -e 999.630043
N -t 0.620637 -n 1 -e 999.628066
N -t 0.620637 -n 9 -e 999.630043
N -t 0.620637 -n 0 -e 999.630043
N -t 0.620638 -n 3 -e 999.630043
N -t 0.620638 -n 8 -e 999.630043
N -t 0.620638 -n 2 -e 999.629073
N -t 0.620951 -n 7 -e 999.629711
N -t 0.620952 -n 10 -e 999.629711
N -t 0.620952 -n 5 -e 999.628904
N -t 0.620952 -n 2 -e 999.628741
N -t 0.620952 -n 3 -e 999.629711
N -t 0.620952 -n 6 -e 999.629711
N -t 0.620952 -n 4 -e 999.629710
N -t 0.620952 -n 8 -e 999.629710
N -t 0.620952 -n 0 -e 999.629710
N -t 0.620952 -n 9 -e 999.629710
N -t 0.621778 -n 10 -e 999.629583
N -t 0.621778 -n 6 -e 999.629583
N -t 0.621778 -n 4 -e 999.629583
N -t 0.621778 -n 7 -e 999.629583
N -t 0.621778 -n 1 -e 999.627115
N -t 0.621778 -n 9 -e 999.629583
N -t 0.621778 -n 0 -e 999.629583
N -t 0.621779 -n 3 -e 999.629582
N -t 0.621779 -n 8 -e 999.629582
N -t 0.621779 -n 2 -e 999.628613
r 0.621792689 _5_ RTR  --- 0 AODV 44 [13a 5 1 800] [energy 999.628594 ei 0.363 es 0.000 et 0.002 er 0.006] ------- [2:255 5:255 29 5] [0x4 2 [2 4] 10.000000] (REPLY)
s 0.621792689 _5_ RTR  --- 0 cbr 532 [0 0 0 0] [energy 999.628594 ei 0.363 es 0.000 et 0.002 er 0.006] ------- [5:0 2:0 30 1] [0] 0 0
N -t 0.622412 -n 10 -e 999.629244
N -t 0.622412 -n 6 -e 999.629244
N -t 0.622412 -n 4 -e 999.629244
N -t 0.622412 -n 7 -e 999.629244
N -t 0.622412 -n 1 -e 999.626777
N -t 0.622412 -n 9 -e 999.629244
N -t 0.622412 -n 0 -e 999.629244
N -t 0.622413 -n 3 -e 999.629244
N -t 0.622413 -n 8 -e 999.629244
N -t 0.622413 -n 2 -e 999.628274
N -t 0.622774 -n 7 -e 999.629116
N -t 0.622775 -n 10 -e 999.629116
N -t 0.622775 -n 5 -e 999.627916
N -t 0.622775 -n 2 -e 999.628146
N -t 0.622775 -n 3 -e 999.629116
N -t 0.622775 -n 6 -e 999.629116
N -t 0.622775 -n 4 -e 999.629116
N -t 0.622775 -n 8 -e 999.629116
N -t 0.622775 -n 0 -e 999.629116
N -t 0.622775 -n 9 -e 999.629116
N -t 0.623089 -n 10 -e 999.627222
N -t 0.623089 -n 6 -e 999.627222
N -t 0.623089 -n 4 -e 999.627222
N -t 0.623089 -n 7 -e 999.627222
N -t 0.623089 -n 1 -e 999.624572
N -t 0.623089 -n 9 -e 999.627222
N -t 0.623089 -n 0 -e 999.627222
N -t 0.623090 -n 3 -e 999.627221
N -t 0.623090 -n 8 -e 999.627221
N -t 0.623090 -n 2 -e 999.626252
s 0.624576000 _5_ AGT  --- 6 cbr 512 [0 0 0 0] [energy 999.623190 ei 0.363 es 0.000 et 0.008 er 0.006] ------- [5:0 2:0 32 0] [6] 0 0
r 0.624576000 _5_ RTR  --- 6 cbr 512 [0 0 0 0] [energy 999.623190 ei 0.363 es 0.000 et 0.008 er 0.006] ------- [5:0 2:0 32 0] [6] 0 0
s 0.624576000 _5_ RTR  --- 6 cbr 532 [0 0 0 0] [energy 999.623190 ei 0.363 es 0.000 et 0.008 er 0.006] ------- [5:0 2:0 30 1] [6] 0 0
N -t 0.627819 -n 7 -e 999.627094
N -t 0.627820 -n 10 -e 999.627094
N -t 0.627820 -n 5 -e 999.623062
N -t 0.627820 -n 2 -e 999.626124
N -t 0.627820 -n 3 -e 999.627094
N -t 0.627820 -n 6 -e 999.627094
N -t 0.627820 -n 4 -e 999.627094
N -t 0.627820 -n 8 -e 999.627094
N -t 0.627820 -n 0 -e 999.627093
N -t 0.627820 -n 9 -e 999.627093
r 0.627834192 _1_ RTR  --- 0 cbr 532 [13a 1 5 800] [energy 999.624262 ei 0.363 es 0.000 et 0.006 er 0.007] ------- [5:0 2:0 30 1] [0] 1 0
f 0.627834192 _1_ RTR  --- 0 cbr 532 [13a 1 5 800] [energy 999.624262 ei 0.363 es 0.000 et 0.006 er 0.007] ------- [5:0 2:0 29 2] [0] 1 0
N -t 0.628273 -n 7 -e 999.626863
N -t 0.628274 -n 10 -e 999.626863
N -t 0.628274 -n 5 -e 999.622831
N -t 0.628274 -n 2 -e 999.625893
N -t 0.628274 -n 3 -e 999.626863
N -t 0.628274 -n 6 -e 999.626863
N -t 0.628274 -n 4 -e 999.626863
N -t 0.628274 -n 8 -e 999.626863
N -t 0.628274 -n 0 -e 999.626863
N -t 0.628274 -n 9 -e 999.626863
N -t 0.628636 -n 1 -e 999.623692
N -t 0.628636 -n 7 -e 999.626735
N -t 0.628636 -n 3 -e 999.626735
N -t 0.628637 -n 10 -e 999.626735
N -t 0.628637 -n 5 -e 999.622703
N -t 0.628637 -n 8 -e 999.626735
N -t 0.628637 -n 6 -e 999.626735
N -t 0.628637 -n 4 -e 999.626735
N -t 0.628637 -n 0 -e 999.626735
N -t 0.628637 -n 9 -e 999.626734
s 0.628672000 _5_ AGT  --- 7 cbr 512 [0 0 0 0] [energy 999.622703 ei 0.364 es 0.000 et 0.008 er 0.006] ------- [5:0 2:0 32 0] [7] 0 0
r 0.628672000 _5_ RTR  --- 7 cbr 512 [0 0 0 0] [energy 999.622703 ei 0.364 es 0.000 et 0.008 er 0.006] ------- [5:0 2:0 32 0] [7] 0 0
s 0.628672000 _5_ RTR  --- 7 cbr 532 [0 0 0 0] [energy 999.622703 ei 0.364 es 0.000 et 0.008 er 0.006] ------- [5:0 2:0 30 1] [7] 0 0
N -t 0.628950 -n 7 -e 999.624841
N -t 0.628951 -n 10 -e 999.624841
N -t 0.628951 -n 5 -e 999.620809
N -t 0.628951 -n 2 -e 999.623689
N -t 0.628951 -n 3 -e 999.624841
N -t 0.628951 -n 6 -e 999.624841
N -t 0.628951 -n 4 -e 999.624841
N -t 0.628951 -n 8 -e 999.624841
N -t 0.628951 -n 0 -e 999.624840
N -t 0.628951 -n 9 -e 999.624840
s 0.631792689 _5_ RTR  --- 1 cbr 532 [0 0 0 0] [energy 999.620809 ei 0.364 es 0.000 et 0.008 er 0.008] ------- [5:0 2:0 30 1] [1] 0 0
s 0.632768000 _5_ AGT  --- 8 cbr 512 [0 0 0 0] [energy 999.620809 ei 0.364 es 0.000 et 0.008 er 0.008] ------- [5:0 2:0 32 0] [8] 0 0
r 0.632768000 _5_ RTR  --- 8 cbr 512 [0 0 0 0] [energy 999.620809 ei 0.364 es 0.000 et 0.008 er 0.008] ------- [5:0 2:0 32 0] [8] 0 0
s 0.632768000 _5_ RTR  --- 8 cbr 532 [0 0 0 0] [energy 999.620809 ei 0.364 es 0.000 et 0.008 er 0.008] ------- [5:0 2:0 30 1] [8] 0 0
N -t 0.633681 -n 1 -e 999.618838
N -t 0.633681 -n 7 -e 999.624713
N -t 0.633681 -n 3 -e 999.624713
N -t 0.633682 -n 10 -e 999.624713
N -t 0.633682 -n 5 -e 999.620681
N -t 0.633682 -n 8 -e 999.624713
N -t 0.633682 -n 6 -e 999.624713
N -t 0.633682 -n 4 -e 999.624712
N -t 0.633682 -n 0 -e 999.624712
N -t 0.633682 -n 9 -e 999.624712
r 0.633695694 _2_ AGT  --- 0 cbr 532 [13a 2 1 800] [energy 999.623379 ei 0.364 es 0.000 et 0.003 er 0.010] ------- [5:0 2:0 29 2] [0] 2 0
N -t 0.634840 -n 10 -e 999.624059
N -t 0.634840 -n 6 -e 999.624059
N -t 0.634840 -n 4 -e 999.624059
N -t 0.634840 -n 7 -e 999.624059
N -t 0.634840 -n 1 -e 999.618184
N -t 0.634840 -n 9 -e 999.624059
N -t 0.634840 -n 0 -e 999.624059
N -t 0.634841 -n 3 -e 999.624059
N -t 0.634841 -n 8 -e 999.624059
N -t 0.634841 -n 2 -e 999.622724
N -t 0.635202 -n 7 -e 999.623931
N -t 0.635203 -n 10 -e 999.623931
N -t 0.635203 -n 5 -e 999.619688
N -t 0.635203 -n 2 -e 999.622597
N -t 0.635203 -n 3 -e 999.623931
N -t 0.635203 -n 6 -e 999.623931
N -t 0.635203 -n 4 -e 999.623931
N -t 0.635203 -n 8 -e 999.623931
N -t 0.635203 -n 0 -e 999.623931
N -t 0.635203 -n 9 -e 999.623931
N -t 0.635517 -n 10 -e 999.622037
N -t 0.635517 -n 6 -e 999.622037
N -t 0.635517 -n 4 -e 999.622037
N -t 0.635517 -n 7 -e 999.622037
N -t 0.635517 -n 1 -e 999.615979
N -t 0.635517 -n 9 -e 999.622037
N -t 0.635517 -n 0 -e 999.622037
N -t 0.635518 -n 3 -e 999.622037
N -t 0.635518 -n 8 -e 999.622037
N -t 0.635518 -n 2 -e 999.620702