n -t * -s 0  -x 456 -y 320 -Z 0 -z 30  -v circle -c green
n -t * -s 1  -x 203 -y 139 -Z 0 -z 30  -v circle -c green
n -t * -s 2  -x 482 -y 386 -Z 0 -z 30  -v circle -c green
n -t * -s 3  -x 47 -y 252 -Z 0 -z 30  -v circle -c green
n -t * -s 4  -x 421 -y 202 -Z 0 -z 30  -v circle -c green
n -t * -s 5  -x 317 -y 348 -Z 0 -z 30  -v circle -c green
n -t * -s 6  -x 273 -y 18 -Z 0 -z 30  -v circle -c green
n -t * -s 7  -x 296 -y 356 -Z 0 -z 30  -v circle -c green
n -t * -s 8  -x 159 -y 201 -Z 0 -z 30  -v circle -c green
n -t * -s 9  -x 419 -y 140 -Z 0 -z 30  -v circle -c green
n -t * -s 10  -x 66 -y 54 -Z 0 -z 30  -v circle -c green
V -t * -v 1.0a5 -a 0
W -t * -x 500 -y 400
A -t * -n 1 -p 0 -o 0x7fffffff -c 30 -a 1
A -t * -h 1 -m 1073741823 -s 0
n -t 0.200000 -s 0 -x 456.000000 -y 320.000000 -U -72.857838 -V -4.553615 -T 1.537240
n -t 0.200000 -s 1 -x 203.000000 -y 139.000000 -U -70.141062 -V -11.010516 -T 2.452201
n -t 0.200000 -s 5 -x 317.000000 -y 348.000000 -U -38.421949 -V -72.441382 -T 2.498572
n -t 0.200000 -s 7 -x 296.000000 -y 356.000000 -U -73.984468 -V -1.516075 -T 3.297990
n -t 0.200000 -s 9 -x 419.000000 -y 140.000000 -U -76.171953 -V -16.787898 -T 3.990970
n -t 0.200000 -s 10 -x 66.000000 -y 54.000000 -U 5.600443 -V 59.738054 -T 1.071344
+ -t 0.400000000 -s 5 -d -1 -p cbr -e 512 -c 2 -a 0 -i 0 -k AGT 
- -t 0.400000000 -s 5 -d -1 -p cbr -e 512 -c 2 -a 0 -i 0 -k AGT
h -t 0.400000000 -s 5 -d -1 -p cbr -e 512 -c 2 -a 0 -i 0 -k AGT
+ -t 0.400000000 -s 5 -d -1 -p AODV -e 48 -c 2 -a 0 -i 0 -k RTR 
- -t 0.400000000 -s 5 -d -1 -p AODV -e 48 -c 2 -a 0 -i 0 -k RTR
h -t 0.400000000 -s 5 -d -1 -p AODV -e 48 -c 2 -a 0 -i 0 -k RTR
r -t 0.401408120 -s 7 -d -1 -p AODV -e 48 -c 2 -a 0 -i 0 -k RTR
r -t 0.401408443 -s 0 -d -1 -p AODV -e 48 -c 2 -a 0 -i 0 -k RTR
r -t 0.401408575 -s 4 -d -1 -p AODV -e 48 -c 2 -a 0 -i 0 -k RTR
r -t 0.401408602 -s 2 -d -1 -p AODV -e 48 -c 2 -a 0 -i 0 -k RTR
+ -t 0.401408602 -s 2 -d 5 -p AODV -e 44 -c 2 -a 0 -i 0 -k RTR 
- -t 0.401408602 -s 2 -d 5 -p AODV -e 44 -c 2 -a 0 -i 0 -k RTR
h -t 0.401408602 -s 2 -d 5 -p AODV -e 44 -c 2 -a 0 -i 0 -k RTR
r -t 0.401408668 -s 8 -d -1 -p AODV -e 48 -c 2 -a 0 -i 0 -k RTR
r -t 0.401408728 -s 9 -d -1 -p AODV -e 48 -c 2 -a 0 -i 0 -k RTR
r -t 0.401408769 -s 1 -d -1 -p AODV -e 48 -c 2 -a 0 -i 0 -k RTR
+ -t 0.401550166 -s 7 -d -1 -p AODV -e 48 -c 2 -a 0 -i 0 -k RTR 
- -t 0.401550166 -s 7 -d -1 -p AODV -e 48 -c 2 -a 0 -i 0 -k RTR
h -t 0.401550166 -s 7 -d -1 -p AODV -e 48 -c 2 -a 0 -i 0 -k RTR
+ -t 0.402289670 -s 0 -d -1 -p AODV -e 48 -c 2 -a 0 -i 0 -k RTR 
- -t 0.402289670 -s 0 -d -1 -p AODV -e 48 -c 2 -a 0 -i 0 -k RTR
h -t 0.402289670 -s 0 -d -1 -p AODV -e 48 -c 2 -a 0 -i 0 -k RTR
+ -t 0.404096000 -s 5 -d -1 -p cbr -e 512 -c 2 -a 0 -i 1 -k AGT 
- -t 0.404096000 -s 5 -d -1 -p cbr -e 512 -c 2 -a 0 -i 1 -k AGT
h -t 0.404096000 -s 5 -d -1 -p cbr -e 512 -c 2 -a 0 -i 1 -k AGT
+ -t 0.404538345 -s 9 -d -1 -p AODV -e 48 -c 2 -a 0 -i 0 -k RTR 
- -t 0.404538345 -s 9 -d -1 -p AODV -e 48 -c 2 -a 0 -i 0 -k RTR
h -t 0.404538345 -s 9 -d -1 -p AODV -e 48 -c 2 -a 0 -i 0 -k RTR
+ -t 0.405820309 -s 4 -d -1 -p AODV -e 48 -c 2 -a 0 -i 0 -k RTR 
- -t 0.405820309 -s 4 -d -1 -p AODV -e 48 -c 2 -a 0 -i 0 -k RTR
h -t 0.405820309 -s 4 -d -1 -p AODV -e 48 -c 2 -a 0 -i 0 -k RTR
+ -t 0.405935818 -s 5 -d 2 -p cbr -e 532 -c 2 -a 0 -i 0 -k RTR 
- -t 0.405935818 -s 5 -d 2 -p cbr -e 532 -c 2 -a 0 -i 0 -k RTR
h -t 0.405935818 -s 5 -d 2 -p cbr -e 532 -c 2 -a 0 -i 0 -k RTR
r -t 0.407168522 -s 2 -d -1 -p AODV -e 48 -c 2 -a 0 -i 0 -k RTR
r -t 0.407168656 -s 4 -d -1 -p AODV -e 48 -c 2 -a 0 -i 0 -k RTR
r -t 0.407168702 -s 5 -d -1 -p AODV -e 48 -c 2 -a 0 -i 0 -k RTR
r -t 0.407168808 -s 7 -d -1 -p AODV -e 48 -c 2 -a 0 -i 0 -k RTR
r -t 0.407168881 -s 9 -d -1 -p AODV -e 48 -c 2 -a 0 -i 0 -k RTR
r -t 0.408106929 -s 5 -d -1 -p AODV -e 48 -c 2 -a 0 -i 0 -k RTR
r -t 0.408107356 -s 0 -d -1 -p AODV -e 48 -c 2 -a 0 -i 0 -k RTR
r -t 0.408107464 -s 8 -d -1 -p AODV -e 48 -c 2 -a 0 -i 0 -k RTR
r -t 0.408107486 -s 2 -d -1 -p AODV -e 48 -c 2 -a 0 -i 0 -k RTR
r -t 0.408107502 -s 4 -d -1 -p AODV -e 48 -c 2 -a 0 -i 0 -k RTR
r -t 0.408107600 -s 1 -d -1 -p AODV -e 48 -c 2 -a 0 -i 0 -k RTR
+ -t 0.408192000 -s 5 -d -1 -p cbr -e 512 -c 2 -a 0 -i 2 -k AGT 
- -t 0.408192000 -s 5 -d -1 -p cbr -e 512 -c 2 -a 0 -i 2 -k AGT
h -t 0.408192000 -s 5 -d -1 -p cbr -e 512 -c 2 -a 0 -i 2 -k AGT
+ -t 0.408192000 -s 5 -d 2 -p cbr -e 532 -c 2 -a 0 -i 2 -k RTR 
- -t 0.408192000 -s 5 -d 2 -p cbr -e 532 -c 2 -a 0 -i 2 -k RTR
h -t 0.408192000 -s 5 -d 2 -p cbr -e 532 -c 2 -a 0 -i 2 -k RTR
+ -t 0.409400222 -s 8 -d -1 -p AODV -e 48 -c 2 -a 0 -i 0 -k RTR 
- -t 0.409400222 -s 8 -d -1 -p AODV -e 48 -c 2 -a 0 -i 0 -k RTR
h -t 0.409400222 -s 8 -d -1 -p AODV -e 48 -c 2 -a 0 -i 0 -k RTR
+ -t 0.409573529 -s 1 -d -1 -p AODV -e 48 -c 2 -a 0 -i 0 -k RTR 
- -t 0.409573529 -s 1 -d -1 -p AODV -e 48 -c 2 -a 0 -i 0 -k RTR
h -t 0.409573529 -s 1 -d -1 -p AODV -e 48 -c 2 -a 0 -i 0 -k RTR
+ -t 0.412288000 -s 5 -d -1 -p cbr -e 512 -c 2 -a 0 -i 3 -k AGT 
- -t 0.412288000 -s 5 -d -1 -p cbr -e 512 -c 2 -a 0 -i 3 -k AGT
h -t 0.412288000 -s 5 -d -1 -p cbr -e 512 -c 2 -a 0 -i 3 -k AGT
+ -t 0.412288000 -s 5 -d 2 -p cbr -e 532 -c 2 -a 0 -i 3 -k RTR 
- -t 0.412288000 -s 5 -d 2 -p cbr -e 532 -c 2 -a 0 -i 3 -k RTR
h -t 0.412288000 -s 5 -d 2 -p cbr -e 532 -c 2 -a 0 -i 3 -k RTR
r -t 0.413834739 -s 2 -d 2 -p cbr -e 532 -c 2 -a 0 -i 0 -k AGT
r -t 0.415067612 -s 9 -d -1 -p AODV -e 48 -c 2 -a 0 -i 0 -k RTR
r -t 0.415067780 -s 0 -d -1 -p AODV -e 48 -c 2 -a 0 -i 0 -k RTR
r -t 0.415067959 -s 5 -d -1 -p AODV -e 48 -c 2 -a 0 -i 0 -k RTR
r -t 0.415068031 -s 2 -d -1 -p AODV -e 48 -c 2 -a 0 -i 0 -k RTR
r -t 0.415068080 -s 7 -d -1 -p AODV -e 48 -c 2 -a 0 -i 0 -k RTR
r -t 0.415068172 -s 6 -d -1 -p AODV -e 48 -c 2 -a 0 -i 0 -k RTR
r -t 0.415068192 -s 1 -d -1 -p AODV -e 48 -c 2 -a 0 -i 0 -k RTR
+ -t 0.415935818 -s 5 -d 2 -p cbr -e 532 -c 2 -a 0 -i 1 -k RTR 
- -t 0.415935818 -s 5 -d 2 -p cbr -e 532 -c 2 -a 0 -i 1 -k RTR
h -t 0.415935818 -s 5 -d 2 -p cbr -e 532 -c 2 -a 0 -i 1 -k RTR
r -t 0.416085839 -s 4 -d -1 -p AODV -e 48 -c 2 -a 0 -i 0 -k RTR
r -t 0.416086197 -s 6 -d -1 -p AODV -e 48 -c 2 -a 0 -i 0 -k RTR
r -t 0.416086234 -s 0 -d -1 -p AODV -e 48 -c 2 -a 0 -i 0 -k RTR
r -t 0.416086328 -s 1 -d -1 -p AODV -e 48 -c 2 -a 0 -i 0 -k RTR
r -t 0.416086337 -s 5 -d -1 -p AODV -e 48 -c 2 -a 0 -i 0 -k RTR
+ -t 0.416384000 -s 5 -d -1 -p cbr -e 512 -c 2 -a 0 -i 4 -k AGT 
- -t 0.416384000 -s 5 -d -1 -p cbr -e 512 -c 2 -a 0 -i 4 -k AGT
h -t 0.416384000 -s 5 -d -1 -p cbr -e 512 -c 2 -a 0 -i 4 -k AGT
+ -t 0.416384000 -s 5 -d 2 -p cbr -e 532 -c 2 -a 0 -i 4 -k RTR 
- -t 0.416384000 -s 5 -d 2 -p cbr -e 532 -c 2 -a 0 -i 4 -k RTR
h -t 0.416384000 -s 5 -d 2 -p cbr -e 532 -c 2 -a 0 -i 4 -k RTR
+ -t 0.419155029 -s 6 -d -1 -p AODV -e 48 -c 2 -a 0 -i 0 -k RTR 
- -t 0.419155029 -s 6 -d -1 -p AODV -e 48 -c 2 -a 0 -i 0 -k RTR
h -t 0.419155029 -s 6 -d -1 -p AODV -e 48 -c 2 -a 0 -i 0 -k RTR
+ -t 0.420480000 -s 5 -d -1 -p cbr -e 512 -c 2 -a 0 -i 5 -k AGT 
- -t 0.420480000 -s 5 -d -1 -p cbr -e 512 -c 2 -a 0 -i 5 -k AGT
h -t 0.420480000 -s 5 -d -1 -p cbr -e 512 -c 2 -a 0 -i 5 -k AGT
+ -t 0.420480000 -s 5 -d 2 -p cbr -e 532 -c 2 -a 0 -i 5 -k RTR 
- -t 0.420480000 -s 5 -d 2 -p cbr -e 532 -c 2 -a 0 -i 5 -k RTR
h -t 0.420480000 -s 5 -d 2 -p cbr -e 532 -c 2 -a 0 -i 5 -k RTR
r -t 0.421594151 -s 2 -d 2 -p cbr -e 532 -c 2 -a 0 -i 2 -k AGT
+ -t 0.424576000 -s 5 -d -1 -p cbr -e 512 -c 2 -a 0 -i 6 -k AGT 
- -t 0.424576000 -s 5 -d -1 -p cbr -e 512 -c 2 -a 0 -i 6 -k AGT
h -t 0.424576000 -s 5 -d -1 -p cbr -e 512 -c 2 -a 0 -i 6 -k AGT
+ -t 0.424576000 -s 5 -d 2 -p cbr -e 532 -c 2 -a 0 -i 6 -k RTR 
- -t 0.424576000 -s 5 -d 2 -p cbr -e 532 -c 2 -a 0 -i 6 -k RTR
h -t 0.424576000 -s 5 -d 2 -p cbr -e 532 -c 2 -a 0 -i 6 -k RTR
r -t 0.427536575 -s 2 -d 2 -p cbr -e 532 -c 2 -a 0 -i 3 -k AGT
+ -t 0.428672000 -s 5 -d -1 -p cbr -e 512 -c 2 -a 0 -i 7 -k AGT 
- -t 0.428672000 -s 5 -d -1 -p cbr -e 512 -c 2 -a 0 -i 7 -k AGT
h -t 0.428672000 -s 5 -d -1 -p cbr -e 512 -c 2 -a 0 -i 7 -k AGT
+ -t 0.428672000 -s 5 -d 2 -p cbr -e 532 -c 2 -a 0 -i 7 -k RTR 
- -t 0.428672000 -s 5 -d 2 -p cbr -e 532 -c 2 -a 0 -i 7 -k RTR
h -t 0.428672000 -s 5 -d 2 -p cbr -e 532 -c 2 -a 0 -i 7 -k RTR
r -t 0.429254097 -s 8 -d -1 -p AODV -e 48 -c 2 -a 0 -i 0 -k RTR
r -t 0.429254323 -s 10 -d -1 -p AODV -e 48 -c 2 -a 0 -i 0 -k RTR
r -t 0.429254350 -s 6 -d -1 -p AODV -e 48 -c 2 -a 0 -i 0 -k RTR
r -t 0.429254467 -s 3 -d -1 -p AODV -e 48 -c 2 -a 0 -i 0 -k RTR
r -t 0.429254578 -s 9 -d -1 -p AODV -e 48 -c 2 -a 0 -i 0 -k RTR
r -t 0.429254628 -s 5 -d -1 -p AODV -e 48 -c 2 -a 0 -i 0 -k RTR
r -t 0.429254655 -s 7 -d -1 -p AODV -e 48 -c 2 -a 0 -i 0 -k RTR
r -t 0.429254672 -s 4 -d -1 -p AODV -e 48 -c 2 -a 0 -i 0 -k RTR
+ -t 0.431425917 -s 10 -d -1 -p AODV -e 48 -c 2 -a 0 -i 0 -k RTR 
- -t 0.431425917 -s 10 -d -1 -p AODV -e 48 -c 2 -a 0 -i 0 -k RTR
h -t 0.431425917 -s 10 -d -1 -p AODV -e 48 -c 2 -a 0 -i 0 -k RTR
+ -t 0.431666724 -s 3 -d -1 -p AODV -e 48 -c 2 -a 0 -i 0 -k RTR 
- -t 0.431666724 -s 3 -d -1 -p AODV -e 48 -c 2 -a 0 -i 0 -k RTR
h -t 0.431666724 -s 3 -d -1 -p AODV -e 48 -c 2 -a 0 -i 0 -k RTR
+ -t 0.432768000 -s 5 -d -1 -p cbr -e 512 -c 2 -a 0 -i 8 -k AGT 
- -t 0.432768000 -s 5 -d -1 -p cbr -e 512 -c 2 -a 0 -i 8 -k AGT
h -t 0.432768000 -s 5 -d -1 -p cbr -e 512 -c 2 -a 0 -i 8 -k AGT
+ -t 0.432768000 -s 5 -d 2 -p cbr -e 532 -c 2 -a 0 -i 8 -k RTR 
- -t 0.432768000 -s 5 -d 2 -p cbr -e 532 -c 2 -a 0 -i 8 -k RTR
h -t 0.432768000 -s 5 -d 2 -p cbr -e 532 -c 2 -a 0 -i 8 -k RTR
r -t 0.434782450 -s 2 -d 2 -p cbr -e 532 -c 2 -a 0 -i 1 -k AGT
+ -t 0.436864000 -s 5 -d -1 -p cbr -e 512 -c 2 -a 0 -i 9 -k AGT 
- -t 0.436864000 -s 5 -d -1 -p cbr -e 512 -c 2 -a 0 -i 9 -k AGT
h -t 0.436864000 -s 5 -d -1 -p cbr -e 512 -c 2 -a 0 -i 9 -k AGT
+ -t 0.436864000 -s 5 -d 2 -p cbr -e 532 -c 2 -a 0 -i 9 -k RTR 
- -t 0.436864000 -s 5 -d 2 -p cbr -e 532 -c 2 -a 0 -i 9 -k RTR
h -t 0.436864000 -s 5 -d 2 -p cbr -e 532 -c 2 -a 0 -i 9 -k RTR
r -t 0.440904884 -s 2 -d 2 -p cbr -e 532 -c 2 -a 0 -i 4 -k AGT
+ -t 0.440960000 -s 5 -d -1 -p cbr -e 512 -c 2 -a 0 -i 10 -k AGT 
- -t 0.440960000 -s 5 -d -1 -p cbr -e 512 -c 2 -a 0 -i 10 -k AGT
h -t 0.440960000 -s 5 -d -1 -p cbr -e 512 -c 2 -a 0 -i 10 -k AGT
+ -t 0.440960000 -s 5 -d 2 -p cbr -e 532 -c 2 -a 0 -i 10 -k RTR 
- -t 0.440960000 -s 5 -d 2 -p cbr -e 532 -c 2 -a 0 -i 10 -k RTR
h -t 0.440960000 -s 5 -d 2 -p cbr -e 532 -c 2 -a 0 -i 10 -k RTR
+ -t 0.445056000 -s 5 -d -1 -p cbr -e 512 -c 2 -a 0 -i 11 -k AGT 
- -t 0.445056000 -s 5 -d -1 -p cbr -e 512 -c 2 -a 0 -i 11 -k AGT
h -t 0.445056000 -s 5 -d -1 -p cbr -e 512 -c 2 -a 0 -i 11 -k AGT
+ -t 0.445056000 -s 5 -d 2 -p cbr -e 532 -c 2 -a 0 -i 11 -k RTR 
- -t 0.445056000 -s 5 -d 2 -p cbr -e 532 -c 2 -a 0 -i 11 -k RTR
h -t 0.445056000 -s 5 -d 2 -p cbr -e 532 -c 2 -a 0 -i 11 -k RTR
r -t 0.446807323 -s 2 -d 2 -p cbr -e 532 -c 2 -a 0 -i 5 -k AGT
+ -t 0.449152000 -s 5 -d -1 -p cbr -e 512 -c 2 -a 0 -i 12 -k AGT 
- -t 0.449152000 -s 5 -d -1 -p cbr -e 512 -c 2 -a 0 -i 12 -k AGT
h -t 0.449152000 -s 5 -d -1 -p cbr -e 512 -c 2 -a 0 -i 12 -k AGT
+ -t 0.449152000 -s 5 -d 2 -p cbr -e 532 -c 2 -a 0 -i 12 -k RTR 
- -t 0.449152000 -s 5 -d 2 -p cbr -e 532 -c 2 -a 0 -i 12 -k RTR
h -t 0.449152000 -s 5 -d 2 -p cbr -e 532 -c 2 -a 0 -i 12 -k RTR
r -t 0.452649766 -s 2 -d 2 -p cbr -e 532 -c 2 -a 0 -i 6 -k AGT
+ -t 0.453248000 -s 5 -d -1 -p cbr -e 512 -c 2 -a 0 -i 13 -k AGT 
- -t 0.453248000 -s 5 -d -1 -p cbr -e 512 -c 2 -a 0 -i 13 -k AGT
h -t 0.453248000 -s 5 -d -1 -p cbr -e 512 -c 2 -a 0 -i 13 -k AGT
+ -t 0.453248000 -s 5 -d 2 -p cbr -e 532 -c 2 -a 0 -i 13 -k RTR 
- -t 0.453248000 -s 5 -d 2 -p cbr -e 532 -c 2 -a 0 -i 13 -k RTR
h -t 0.453248000 -s 5 -d 2 -p cbr -e 532 -c 2 -a 0 -i 13 -k RTR
+ -t 0.457344000 -s 5 -d -1 -p cbr -e 512 -c 2 -a 0 -i 14 -k AGT 
- -t 0.457344000 -s 5 -d -1 -p cbr -e 512 -c 2 -a 0 -i 14 -k AGT
h -t 0.457344000 -s 5 -d -1 -p cbr -e 512 -c 2 -a 0 -i 14 -k AGT
+ -t 0.457344000 -s 5 -d 2 -p cbr -e 532 -c 2 -a 0 -i 14 -k RTR 
- -t 0.457344000 -s 5 -d 2 -p cbr -e 532 -c 2 -a 0 -i 14 -k RTR
h -t 0.457344000 -s 5 -d 2 -p cbr -e 532 -c 2 -a 0 -i 14 -k RTR
r -t 0.458692214 -s 2 -d 2 -p cbr -e 532 -c 2 -a 0 -i 7 -k AGT
+ -t 0.461440000 -s 5 -d -1 -p cbr -e 512 -c 2 -a 0 -i 15 -k AGT 
- -t 0.461440000 -s 5 -d -1 -p cbr -e 512 -c 2 -a 0 -i 15 -k AGT
h -t 0.461440000 -s 5 -d -1 -p cbr -e 512 -c 2 -a 0 -i 15 -k AGT
+ -t 0.461440000 -s 5 -d 2 -p cbr -e 532 -c 2 -a 0 -i 15 -k RTR 
- -t 0.461440000 -s 5 -d 2 -p cbr -e 532 -c 2 -a 0 -i 15 -k RTR
h -t 0.461440000 -s 5 -d 2 -p cbr -e 532 -c 2 -a 0 -i 15 -k RTR
r -t 0.464654666 -s 2 -d 2 -p cbr -e 532 -c 2 -a 0 -i 8 -k AGT
+ -t 0.465536000 -s 5 -d -1 -p cbr -e 512 -c 2 -a 0 -i 16 -k AGT 
- -t 0.465536000 -s 5 -d -1 -p cbr -e 512 -c 2 -a 0 -i 16 -k AGT
h -t 0.465536000 -s 5 -d -1 -p cbr -e 512 -c 2 -a 0 -i 16 -k AGT
+ -t 0.465536000 -s 5 -d 2 -p cbr -e 532 -c 2 -a 0 -i 16 -k RTR 
- -t 0.465536000 -s 5 -d 2 -p cbr -e 532 -c 2 -a 0 -i 16 -k RTR
h -t 0.465536000 -s 5 -d 2 -p cbr -e 532 -c 2 -a 0 -i 16 -k RTR
+ -t 0.469632000 -s 5 -d -1 -p cbr -e 512 -c 2 -a 0 -i 17 -k AGT 
- -t 0.469632000 -s 5 -d -1 -p cbr -e 512 -c 2 -a 0 -i 17 -k AGT
h -t 0.469632000 -s 5 -d -1 -p cbr -e 512 -c 2 -a 0 -i 17 -k AGT
+ -t 0.469632000 -s 5 -d 2 -p cbr -e 532 -c 2 -a 0 -i 17 -k RTR 
- -t 0.469632000 -s 5 -d 2 -p cbr -e 532 -c 2 -a 0 -i 17 -k RTR
h -t 0.469632000 -s 5 -d 2 -p cbr -e 532 -c 2 -a 0 -i 17 -k RTR
r -t 0.470517124 -s 2 -d 2 -p cbr -e 532 -c 2 -a 0 -i 9 -k AGT
r -t 0.472135307 -s 1 -d -1 -p AODV -e 48 -c 2 -a 0 -i 0 -k RTR
r -t 0.472135393 -s 8 -d -1 -p AODV -e 48 -c 2 -a 0 -i 0 -k RTR
r -t 0.472135471 -s 3 -d -1 -p AODV -e 48 -c 2 -a 0 -i 0 -k RTR
r -t 0.472135567 -s 6 -d -1 -p AODV -e 48 -c 2 -a 0 -i 0 -k RTR
r -t 0.473113625 -s 1 -d -1 -p AODV -e 48 -c 2 -a 0 -i 0 -k RTR
r -t 0.473113803 -s 3 -d -1 -p AODV -e 48 -c 2 -a 0 -i 0 -k RTR
r -t 0.473113925 -s 10 -d -1 -p AODV -e 48 -c 2 -a 0 -i 0 -k RTR
r -t 0.473114039 -s 7 -d -1 -p AODV -e 48 -c 2 -a 0 -i 0 -k RTR
r -t 0.473114042 -s 5 -d -1 -p AODV -e 48 -c 2 -a 0 -i 0 -k RTR
r -t 0.473114112 -s 6 -d -1 -p AODV -e 48 -c 2 -a 0 -i 0 -k RTR
r -t 0.473114220 -s 9 -d -1 -p AODV -e 48 -c 2 -a 0 -i 0 -k RTR
+ -t 0.473728000 -s 5 -d -1 -p cbr -e 512 -c 2 -a 0 -i 18 -k AGT 
- -t 0.473728000 -s 5 -d -1 -p cbr -e 512 -c 2 -a 0 -i 18 -k AGT
h -t 0.473728000 -s 5 -d -1 -p cbr -e 512 -c 2 -a 0 -i 18 -k AGT
+ -t 0.473728000 -s 5 -d 2 -p cbr -e 532 -c 2 -a 0 -i 18 -k RTR 
- -t 0.473728000 -s 5 -d 2 -p cbr -e 532 -c 2 -a 0 -i 18 -k RTR
h -t 0.473728000 -s 5 -d 2 -p cbr -e 532 -c 2 -a 0 -i 18 -k RTR
r -t 0.474112604 -s 1 -d -1 -p AODV -e 48 -c 2 -a 0 -i 0 -k RTR
r -t 0.474112684 -s 9 -d -1 -p AODV -e 48 -c 2 -a 0 -i 0 -k RTR
r -t 0.474112818 -s 10 -d -1 -p AODV -e 48 -c 2 -a 0 -i 0 -k RTR
r -t 0.474112830 -s 8 -d -1 -p AODV -e 48 -c 2 -a 0 -i 0 -k RTR
r -t 0.474112899 -s 4 -d -1 -p AODV -e 48 -c 2 -a 0 -i 0 -k RTR
+ -t 0.477824000 -s 5 -d -1 -p cbr -e 512 -c 2 -a 0 -i 19 -k AGT 
- -t 0.477824000 -s 5 -d -1 -p cbr -e 512 -c 2 -a 0 -i 19 -k AGT
h -t 0.477824000 -s 5 -d -1 -p cbr -e 512 -c 2 -a 0 -i 19 -k AGT
+ -t 0.477824000 -s 5 -d 2 -p cbr -e 532 -c 2 -a 0 -i 19 -k RTR 
- -t 0.477824000 -s 5 -d 2 -p cbr -e 532 -c 2 -a 0 -i 19 -k RTR
h -t 0.477824000 -s 5 -d 2 -p cbr -e 532 -c 2 -a 0 -i 19 -k RTR
r -t 0.479945000 -s 2 -d 2 -p cbr -e 532 -c 2 -a 0 -i 10 -k AGT
+ -t 0.481920000 -s 5 -d -1 -p cbr -e 512 -c 2 -a 0 -i 20 -k AGT 
- -t 0.481920000 -s 5 -d -1 -p cbr -e 512 -c 2 -a 0 -i 20 -k AGT
h -t 0.481920000 -s 5 -d -1 -p cbr -e 512 -c 2 -a 0 -i 20 -k AGT
+ -t 0.481920000 -s 5 -d 2 -p cbr -e 532 -c 2 -a 0 -i 20 -k RTR 
- -t 0.481920000 -s 5 -d 2 -p cbr -e 532 -c 2 -a 0 -i 20 -k RTR
h -t 0.481920000 -s 5 -d 2 -p cbr -e 532 -c 2 -a 0 -i 20 -k RTR
r -t 0.485767470 -s 2 -d 2 -p cbr -e 532 -c 2 -a 0 -i 11 -k AGT
+ -t 0.486016000 -s 5 -d -1 -p cbr -e 512 -c 2 -a 0 -i 21 -k AGT 
- -t 0.486016000 -s 5 -d -1 -p cbr -e 512 -c 2 -a 0 -i 21 -k AGT
h -t 0.486016000 -s 5 -d -1 -p cbr -e 512 -c 2 -a 0 -i 21 -k AGT
+ -t 0.486016000 -s 5 -d 2 -p cbr -e 532 -c 2 -a 0 -i 21 -k RTR 
- -t 0.486016000 -s 5 -d 2 -p cbr -e 532 -c 2 -a 0 -i 21 -k RTR
h -t 0.486016000 -s 5 -d 2 -p cbr -e 532 -c 2 -a 0 -i 21 -k RTR
+ -t 0.490112000 -s 5 -d -1 -p cbr -e 512 -c 2 -a 0 -i 22 -k AGT 
- -t 0.490112000 -s 5 -d -1 -p cbr -e 512 -c 2 -a 0 -i 22 -k AGT
h -t 0.490112000 -s 5 -d -1 -p cbr -e 512 -c 2 -a 0 -i 22 -k AGT
+ -t 0.490112000 -s 5 -d 2 -p cbr -e 532 -c 2 -a 0 -i 22 -k RTR 
- -t 0.490112000 -s 5 -d 2 -p cbr -e 532 -c 2 -a 0 -i 22 -k RTR
h -t 0.490112000 -s 5 -d 2 -p cbr -e 532 -c 2 -a 0 -i 22 -k RTR
r -t 0.491649944 -s 2 -d 2 -p cbr -e 532 -c 2 -a 0 -i 12 -k AGT
+ -t 0.494208000 -s 5 -d -1 -p cbr -e 512 -c 2 -a 0 -i 23 -k AGT 
- -t 0.494208000 -s 5 -d -1 -p cbr -e 512 -c 2 -a 0 -i 23 -k AGT
h -t 0.494208000 -s 5 -d -1 -p cbr -e 512 -c 2 -a 0 -i 23 -k AGT
+ -t 0.494208000 -s 5 -d 2 -p cbr -e 532 -c 2 -a 0 -i 23 -k RTR 
- -t 0.494208000 -s 5 -d 2 -p cbr -e 532 -c 2 -a 0 -i 23 -k RTR
h -t 0.494208000 -s 5 -d 2 -p cbr -e 532 -c 2 -a 0 -i 23 -k RTR
r -t 0.497752422 -s 2 -d 2 -p cbr -e 532 -c 2 -a 0 -i 13 -k AGT
+ -t 0.498304000 -s 5 -d -1 -p cbr -e 512 -c 2 -a 0 -i 24 -k AGT 
- -t 0.498304000 -s 5 -d -1 -p cbr -e 512 -c 2 -a 0 -i 24 -k AGT
h -t 0.498304000 -s 5 -d -1 -p cbr -e 512 -c 2 -a 0 -i 24 -k AGT
+ -t 0.498304000 -s 5 -d 2 -p cbr -e 532 -c 2 -a 0 -i 24 -k RTR 
- -t 0.498304000 -s 5 -d 2 -p cbr -e 532 -c 2 -a 0 -i 24 -k RTR
h -t 0.498304000 -s 5 -d 2 -p cbr -e 532 -c 2 -a 0 -i 24 -k RTR
r -t 0.499390350 -s 8 -d -1 -p AODV -e 48 -c 2 -a 0 -i 0 -k RTR
r -t 0.499390534 -s 1 -d -1 -p AODV -e 48 -c 2 -a 0 -i 0 -k RTR
r -t 0.499390544 -s 10 -d -1 -p AODV -e 48 -c 2 -a 0 -i 0 -k RTR
r -t 0.499390771 -s 7 -d -1 -p AODV -e 48 -c 2 -a 0 -i 0 -k RTR
+ -t 0.502400000 -s 5 -d -1 -p cbr -e 512 -c 2 -a 0 -i 25 -k AGT 
- -t 0.502400000 -s 5 -d -1 -p cbr -e 512 -c 2 -a 0 -i 25 -k AGT
h -t 0.502400000 -s 5 -d -1 -p cbr -e 512 -c 2 -a 0 -i 25 -k AGT
+ -t 0.502400000 -s 5 -d 2 -p cbr -e 532 -c 2 -a 0 -i 25 -k RTR 
- -t 0.502400000 -s 5 -d 2 -p cbr -e 532 -c 2 -a 0 -i 25 -k RTR
h -t 0.502400000 -s 5 -d 2 -p cbr -e 532 -c 2 -a 0 -i 25 -k RTR
r -t 0.505282700 -s 2 -d 2 -p cbr -e 532 -c 2 -a 0 -i 14 -k AGT
+ -t 0.506496000 -s 5 -d -1 -p cbr -e 512 -c 2 -a 0 -i 26 -k AGT 
- -t 0.506496000 -s 5 -d -1 -p cbr -e 512 -c 2 -a 0 -i 26 -k AGT
h -t 0.506496000 -s 5 -d -1 -p cbr -e 512 -c 2 -a 0 -i 26 -k AGT
+ -t 0.506496000 -s 5 -d 2 -p cbr -e 532 -c 2 -a 0 -i 26 -k RTR 
- -t 0.506496000 -s 5 -d 2 -p cbr -e 532 -c 2 -a 0 -i 26 -k RTR
h -t 0.506496000 -s 5 -d 2 -p cbr -e 532 -c 2 -a 0 -i 26 -k RTR
+ -t 0.510592000 -s 5 -d -1 -p cbr -e 512 -c 2 -a 0 -i 27 -k AGT 
- -t 0.510592000 -s 5 -d -1 -p cbr -e 512 -c 2 -a 0 -i 27 -k AGT
h -t 0.510592000 -s 5 -d -1 -p cbr -e 512 -c 2 -a 0 -i 27 -k AGT
+ -t 0.510592000 -s 5 -d 2 -p cbr -e 532 -c 2 -a 0 -i 27 -k RTR 
- -t 0.510592000 -s 5 -d 2 -p cbr -e 532 -c 2 -a 0 -i 27 -k RTR
h -t 0.510592000 -s 5 -d 2 -p cbr -e 532 -c 2 -a 0 -i 27 -k RTR
r -t 0.511225189 -s 2 -d 2 -p cbr -e 532 -c 2 -a 0 -i 15 -k AGT
+ -t 0.514688000 -s 5 -d -1 -p cbr -e 512 -c 2 -a 0 -i 28 -k AGT 
- -t 0.514688000 -s 5 -d -1 -p cbr -e 512 -c 2 -a 0 -i 28 -k AGT
h -t 0.514688000 -s 5 -d -1 -p cbr -e 512 -c 2 -a 0 -i 28 -k AGT
+ -t 0.514688000 -s 5 -d 2 -p cbr -e 532 -c 2 -a 0 -i 28 -k RTR 
- -t 0.514688000 -s 5 -d 2 -p cbr -e 532 -c 2 -a 0 -i 28 -k RTR
h -t 0.514688000 -s 5 -d 2 -p cbr -e 532 -c 2 -a 0 -i 28 -k RTR
r -t 0.517267684 -s 2 -d 2 -p cbr -e 532 -c 2 -a 0 -i 16 -k AGT
+ -t 0.518784000 -s 5 -d -1 -p cbr -e 512 -c 2 -a 0 -i 29 -k AGT 
- -t 0.518784000 -s 5 -d -1 -p cbr -e 512 -c 2 -a 0 -i 29 -k AGT
h -t 0.518784000 -s 5 -d -1 -p cbr -e 512 -c 2 -a 0 -i 29 -k AGT
+ -t 0.518784000 -s 5 -d 2 -p cbr -e 532 -c 2 -a 0 -i 29 -k RTR 
- -t 0.518784000 -s 5 -d 2 -p cbr -e 532 -c 2 -a 0 -i 29 -k RTR
h -t 0.518784000 -s 5 -d 2 -p cbr -e 532 -c 2 -a 0 -i 29 -k RTR
+ -t 0.522880000 -s 5 -d -1 -p cbr -e 512 -c 2 -a 0 -i 30 -k AGT 
- -t 0.522880000 -s 5 -d -1 -p cbr -e 512 -c 2 -a 0 -i 30 -k AGT
h -t 0.522880000 -s 5 -d -1 -p cbr -e 512 -c 2 -a 0 -i 30 -k AGT
+ -t 0.522880000 -s 5 -d 2 -p cbr -e 532 -c 2 -a 0 -i 30 -k RTR 
- -t 0.522880000 -s 5 -d 2 -p cbr -e 532 -c 2 -a 0 -i 30 -k RTR
h -t 0.522880000 -s 5 -d 2 -p cbr -e 532 -c 2 -a 0 -i 30 -k RTR
r -t 0.523510183 -s 2 -d 2 -p cbr -e 532 -c 2 -a 0 -i 17 -k AGT
+ -t 0.526976000 -s 5 -d -1 -p cbr -e 512 -c 2 -a 0 -i 31 -k AGT 
- -t 0.526976000 -s 5 -d -1 -p cbr -e 512 -c 2 -a 0 -i 31 -k AGT
h -t 0.526976000 -s 5 -d -1 -p cbr -e 512 -c 2 -a 0 -i 31 -k AGT
+ -t 0.526976000 -s 5 -d 2 -p cbr -e 532 -c 2 -a 0 -i 31 -k RTR 
- -t 0.526976000 -s 5 -d 2 -p cbr -e 532 -c 2 -a 0 -i 31 -k RTR
h -t 0.526976000 -s 5 -d 2 -p cbr -e 532 -c 2 -a 0 -i 31 -k RTR
r -t 0.529272687 -s 2 -d 2 -p cbr -e 532 -c 2 -a 0 -i 18 -k AGT
+ -t 0.531072000 -s 5 -d -1 -p cbr -e 512 -c 2 -a 0 -i 32 -k AGT 
- -t 0.531072000 -s 5 -d -1 -p cbr -e 512 -c 2 -a 0 -i 32 -k AGT
h -t 0.531072000 -s 5 -d -1 -p cbr -e 512 -c 2 -a 0 -i 32 -k AGT
+ -t 0.531072000 -s 5 -d 2 -p cbr -e 532 -c 2 -a 0 -i 32 -k RTR 
- -t 0.531072000 -s 5 -d 2 -p cbr -e 532 -c 2 -a 0 -i 32 -k RTR
h -t 0.531072000 -s 5 -d 2 -p cbr -e 532 -c 2 -a 0 -i 32 -k RTR
+ -t 0.535168000 -s 5 -d -1 -p cbr -e 512 -c 2 -a 0 -i 33 -k AGT 
- -t 0.535168000 -s 5 -d -1 -p cbr -e 512 -c 2 -a 0 -i 33 -k AGT
h -t 0.535168000 -s 5 -d -1 -p cbr -e 512 -c 2 -a 0 -i 33 -k AGT
+ -t 0.535168000 -s 5 -d 2 -p cbr -e 532 -c 2 -a 0 -i 33 -k RTR 
- -t 0.535168000 -s 5 -d 2 -p cbr -e 532 -c 2 -a 0 -i 33 -k RTR
h -t 0.535168000 -s 5 -d 2 -p cbr -e 532 -c 2 -a 0 -i 33 -k RTR
r -t 0.535255196 -s 2 -d 2 -p cbr -e 532 -c 2 -a 0 -i 19 -k AGT
+ -t 0.539264000 -s 5 -d -1 -p cbr -e 512 -c 2 -a 0 -i 34 -k AGT 
- -t 0.539264000 -s 5 -d -1 -p cbr -e 512 -c 2 -a 0 -i 34 -k AGT
h -t 0.539264000 -s 5 -d -1 -p cbr -e 512 -c 2 -a 0 -i 34 -k AGT
+ -t 0.539264000 -s 5 -d 2 -p cbr -e 532 -c 2 -a 0 -i 34 -k RTR 
- -t 0.539264000 -s 5 -d 2 -p cbr -e 532 -c 2 -a 0 -i 34 -k RTR
h -t 0.539264000 -s 5 -d 2 -p cbr -e 532 -c 2 -a 0 -i 34 -k RTR
r -t 0.541337709 -s 2 -d 2 -p cbr -e 532 -c 2 -a 0 -i 20 -k AGT
+ -t 0.543360000 -s 5 -d -1 -p cbr -e 512 -c 2 -a 0 -i 35 -k AGT 
- -t 0.543360000 -s 5 -d -1 -p cbr -e 512 -c 2 -a 0 -i 35 -k AGT
h -t 0.543360000 -s 5 -d -1 -p cbr -e 512 -c 2 -a 0 -i 35 -k AGT
+ -t 0.543360000 -s 5 -d 2 -p cbr -e 532 -c 2 -a 0 -i 35 -k RTR 
- -t 0.543360000 -s 5 -d 2 -p cbr -e 532 -c 2 -a 0 -i 35 -k RTR
h -t 0.543360000 -s 5 -d 2 -p cbr -e 532 -c 2 -a 0 -i 35 -k RTR
r -t 0.547260227 -s 2 -d 2 -p cbr -e 532 -c 2 -a 0 -i 21 -k AGT
+ -t 0.547456000 -s 5 -d -1 -p cbr -e 512 -c 2 -a 0 -i 36 -k AGT 
- -t 0.547456000 -s 5 -d -1 -p cbr -e 512 -c 2 -a 0 -i 36 -k AGT
h -t 0.547456000 -s 5 -d -1 -p cbr -e 512 -c 2 -a 0 -i 36 -k AGT
+ -t 0.547456000 -s 5 -d 2 -p cbr -e 532 -c 2 -a 0 -i 36 -k RTR 
- -t 0.547456000 -s 5 -d 2 -p cbr -e 532 -c 2 -a 0 -i 36 -k RTR
h -t 0.547456000 -s 5 -d 2 -p cbr -e 532 -c 2 -a 0 -i 36 -k RTR
+ -t 0.551552000 -s 5 -d -1 -p cbr -e 512 -c 2 -a 0 -i 37 -k AGT 
- -t 0.551552000 -s 5 -d -1 -p cbr -e 512 -c 2 -a 0 -i 37 -k AGT
h -t 0.551552000 -s 5 -d -1 -p cbr -e 512 -c 2 -a 0 -i 37 -k AGT
+ -t 0.551552000 -s 5 -d 2 -p cbr -e 532 -c 2 -a 0 -i 37 -k RTR 
- -t 0.551552000 -s 5 -d 2 -p cbr -e 532 -c 2 -a 0 -i 37 -k RTR
h -t 0.551552000 -s 5 -d 2 -p cbr -e 532 -c 2 -a 0 -i 37 -k RTR
r -t 0.553242751 -s 2 -d 2 -p cbr -e 532 -c 2 -a 0 -i 22 -k AGT
+ -t 0.555648000 -s 5 -d -1 -p cbr -e 512 -c 2 -a 0 -i 38 -k AGT 
- -t 0.555648000 -s 5 -d -1 -p cbr -e 512 -c 2 -a 0 -i 38 -k AGT
h -t 0.555648000 -s 5 -d -1 -p cbr -e 512 -c 2 -a 0 -i 38 -k AGT
+ -t 0.555648000 -s 5 -d 2 -p cbr -e 532 -c 2 -a 0 -i 38 -k RTR 
- -t 0.555648000 -s 5 -d 2 -p cbr -e 532 -c 2 -a 0 -i 38 -k RTR
h -t 0.555648000 -s 5 -d 2 -p cbr -e 532 -c 2 -a 0 -i 38 -k RTR
r -t 0.559085279 -s 2 -d 2 -p cbr -e 532 -c 2 -a 0 -i 23 -k AGT
+ -t 0.559744000 -s 5 -d -1 -p cbr -e 512 -c 2 -a 0 -i 39 -k AGT 
- -t 0.559744000 -s 5 -d -1 -p cbr -e 512 -c 2 -a 0 -i 39 -k AGT
h -t 0.559744000 -s 5 -d -1 -p cbr -e 512 -c 2 -a 0 -i 39 -k AGT
+ -t 0.559744000 -s 5 -d 2 -p cbr -e 532 -c 2 -a 0 -i 39 -k RTR 
- -t 0.559744000 -s 5 -d 2 -p cbr -e 532 -c 2 -a 0 -i 39 -k RTR
h -t 0.559744000 -s 5 -d 2 -p cbr -e 532 -c 2 -a 0 -i 39 -k RTR
+ -t 0.563840000 -s 5 -d -1 -p cbr -e 512 -c 2 -a 0 -i 40 -k AGT 
- -t 0.563840000 -s 5 -d -1 -p cbr -e 512 -c 2 -a 0 -i 40 -k AGT
h -t 0.563840000 -s 5 -d -1 -p cbr -e 512 -c 2 -a 0 -i 40 -k AGT
+ -t 0.563840000 -s 5 -d 2 -p cbr -e 532 -c 2 -a 0 -i 40 -k RTR 
- -t 0.563840000 -s 5 -d 2 -p cbr -e 532 -c 2 -a 0 -i 40 -k RTR
h -t 0.563840000 -s 5 -d 2 -p cbr -e 532 -c 2 -a 0 -i 40 -k RTR
r -t 0.565147811 -s 2 -d 2 -p cbr -e 532 -c 2 -a 0 -i 24 -k AGT
+ -t 0.567936000 -s 5 -d -1 -p cbr -e 512 -c 2 -a 0 -i 41 -k AGT 
- -t 0.567936000 -s 5 -d -1 -p cbr -e 512 -c 2 -a 0 -i 41 -k AGT
h -t 0.567936000 -s 5 -d -1 -p cbr -e 512 -c 2 -a 0 -i 41 -k AGT
+ -t 0.567936000 -s 5 -d 2 -p cbr -e 532 -c 2 -a 0 -i 41 -k RTR 
- -t 0.567936000 -s 5 -d 2 -p cbr -e 532 -c 2 -a 0 -i 41 -k RTR
h -t 0.567936000 -s 5 -d 2 -p cbr -e 532 -c 2 -a 0 -i 41 -k RTR
r -t 0.570910349 -s 2 -d 2 -p cbr -e 532 -c 2 -a 0 -i 25 -k AGT
+ -t 0.572032000 -s 5 -d -1 -p cbr -e 512 -c 2 -a 0 -i 42 -k AGT 
- -t 0.572032000 -s 5 -d -1 -p cbr -e 512 -c 2 -a 0 -i 42 -k AGT
h -t 0.572032000 -s 5 -d -1 -p cbr -e 512 -c 2 -a 0 -i 42 -k AGT
+ -t 0.572032000 -s 5 -d 2 -p cbr -e 532 -c 2 -a 0 -i 42 -k RTR 
- -t 0.572032000 -s 5 -d 2 -p cbr -e 532 -c 2 -a 0 -i 42 -k RTR
h -t 0.572032000 -s 5 -d 2 -p cbr -e 532 -c 2 -a 0 -i 42 -k RTR
+ -t 0.576128000 -s 5 -d -1 -p cbr -e 512 -c 2 -a 0 -i 43 -k AGT 
- -t 0.576128000 -s 5 -d -1 -p cbr -e 512 -c 2 -a 0 -i 43 -k AGT
h -t 0.576128000 -s 5 -d -1 -p cbr -e 512 -c 2 -a 0 -i 43 -k AGT
+ -t 0.576128000 -s 5 -d 2 -p cbr -e 532 -c 2 -a 0 -i 43 -k RTR 
- -t 0.576128000 -s 5 -d 2 -p cbr -e 532 -c 2 -a 0 -i 43 -k RTR
h -t 0.576128000 -s 5 -d 2 -p cbr -e 532 -c 2 -a 0 -i 43 -k RTR
r -t 0.576912891 -s 2 -d 2 -p cbr -e 532 -c 2 -a 0 -i 26 -k AGT
+ -t 0.580224000 -s 5 -d -1 -p cbr -e 512 -c 2 -a 0 -i 44 -k AGT 
- -t 0.580224000 -s 5 -d -1 -p cbr -e 512 -c 2 -a 0 -i 44 -k AGT
h -t 0.580224000 -s 5 -d -1 -p cbr -e 512 -c 2 -a 0 -i 44 -k AGT
+ -t 0.580224000 -s 5 -d 2 -p cbr -e 532 -c 2 -a 0 -i 44 -k RTR 
- -t 0.580224000 -s 5 -d 2 -p cbr -e 532 -c 2 -a 0 -i 44 -k RTR
h -t 0.580224000 -s 5 -d 2 -p cbr -e 532 -c 2 -a 0 -i 44 -k RTR
r -t 0.582975438 -s 2 -d 2 -p cbr -e 532 -c 2 -a 0 -i 27 -k AGT
+ -t 0.584320000 -s 5 -d -1 -p cbr -e 512 -c 2 -a 0 -i 45 -k AGT 
- -t 0.584320000 -s 5 -d -1 -p cbr -e 512 -c 2 -a 0 -i 45 -k AGT
h -t 0.584320000 -s 5 -d -1 -p cbr -e 512 -c 2 -a 0 -i 45 -k AGT
+ -t 0.584320000 -s 5 -d 2 -p cbr -e 532 -c 2 -a 0 -i 45 -k RTR 
- -t 0.584320000 -s 5 -d 2 -p cbr -e 532 -c 2 -a 0 -i 45 -k RTR
h -t 0.584320000 -s 5 -d 2 -p cbr -e 532 -c 2 -a 0 -i 45 -k RTR
+ -t 0.588416000 -s 5 -d -1 -p cbr -e 512 -c 2 -a 0 -i 46 -k AGT 
- -t 0.588416000 -s 5 -d -1 -p cbr -e 512 -c 2 -a 0 -i 46 -k AGT
h -t 0.588416000 -s 5 -d -1 -p cbr -e 512 -c 2 -a 0 -i 46 -k AGT
+ -t 0.588416000 -s 5 -d 2 -p cbr -e 532 -c 2 -a 0 -i 46 -k RTR 
- -t 0.588416000 -s 5 -d 2 -p cbr -e 532 -c 2 -a 0 -i 46 -k RTR
h -t 0.588416000 -s 5 -d 2 -p cbr -e 532 -c 2 -a 0 -i 46 -k RTR
r -t 0.589017990 -s 2 -d 2 -p cbr -e 532 -c 2 -a 0 -i 28 -k AGT
+ -t 0.592512000 -s 5 -d -1 -p cbr -e 512 -c 2 -a 0 -i 47 -k AGT 
- -t 0.592512000 -s 5 -d -1 -p cbr -e 512 -c 2 -a 0 -i 47 -k AGT
h -t 0.592512000 -s 5 -d -1 -p cbr -e 512 -c 2 -a 0 -i 47 -k AGT
+ -t 0.592512000 -s 5 -d 2 -p cbr -e 532 -c 2 -a 0 -i 47 -k RTR 
- -t 0.592512000 -s 5 -d 2 -p cbr -e 532 -c 2 -a 0 -i 47 -k RTR
h -t 0.592512000 -s 5 -d 2 -p cbr -e 532 -c 2 -a 0 -i 47 -k RTR
r -t 0.594800547 -s 2 -d 2 -p cbr -e 532 -c 2 -a 0 -i 29 -k AGT
+ -t 0.596608000 -s 5 -d -1 -p cbr -e 512 -c 2 -a 0 -i 48 -k AGT 
- -t 0.596608000 -s 5 -d -1 -p cbr -e 512 -c 2 -a 0 -i 48 -k AGT
h -t 0.596608000 -s 5 -d -1 -p cbr -e 512 -c 2 -a 0 -i 48 -k AGT
+ -t 0.596608000 -s 5 -d 2 -p cbr -e 532 -c 2 -a 0 -i 48 -k RTR 
- -t 0.596608000 -s 5 -d 2 -p cbr -e 532 -c 2 -a 0 -i 48 -k RTR
h -t 0.596608000 -s 5 -d 2 -p cbr -e 532 -c 2 -a 0 -i 48 -k RTR
+ -t 0.600704000 -s 5 -d -1 -p cbr -e 512 -c 2 -a 0 -i 49 -k AGT 
- -t 0.600704000 -s 5 -d -1 -p cbr -e 512 -c 2 -a 0 -i 49 -k AGT
h -t 0.600704000 -s 5 -d -1 -p cbr -e 512 -c 2 -a 0 -i 49 -k AGT
+ -t 0.600704000 -s 5 -d 2 -p cbr -e 532 -c 2 -a 0 -i 49 -k RTR 
- -t 0.600704000 -s 5 -d 2 -p cbr -e 532 -c 2 -a 0 -i 49 -k RTR
h -t 0.600704000 -s 5 -d 2 -p cbr -e 532 -c 2 -a 0 -i 49 -k RTR
r -t 0.601043109 -s 2 -d 2 -p cbr -e 532 -c 2 -a 0 -i 30 -k AGT
+ -t 0.604800000 -s 5 -d -1 -p cbr -e 512 -c 2 -a 0 -i 50 -k AGT 
- -t 0.604800000 -s 5 -d -1 -p cbr -e 512 -c 2 -a 0 -i 50 -k AGT
h -t 0.604800000 -s 5 -d -1 -p cbr -e 512 -c 2 -a 0 -i 50 -k AGT
+ -t 0.604800000 -s 5 -d 2 -p cbr -e 532 -c 2 -a 0 -i 50 -k RTR 
- -t 0.604800000 -s 5 -d 2 -p cbr -e 532 -c 2 -a 0 -i 50 -k RTR
h -t 0.604800000 -s 5 -d 2 -p cbr -e 532 -c 2 -a 0 -i 50 -k RTR
r -t 0.607045676 -s 2 -d 2 -p cbr -e 532 -c 2 -a 0 -i 31 -k AGT
+ -t 0.608896000 -s 5 -d -1 -p cbr -e 512 -c 2 -a 0 -i 51 -k AGT 
- -t 0.608896000 -s 5 -d -1 -p cbr -e 512 -c 2 -a 0 -i 51 -k AGT
h -t 0.608896000 -s 5 -d -1 -p cbr -e 512 -c 2 -a 0 -i 51 -k AGT
+ -t 0.608896000 -s 5 -d 2 -p cbr -e 532 -c 2 -a 0 -i 51 -k RTR 
- -t 0.608896000 -s 5 -d 2 -p cbr -e 532 -c 2 -a 0 -i 51 -k RTR
h -t 0.608896000 -s 5 -d 2 -p cbr -e 532 -c 2 -a 0 -i 51 -k RTR
r -t 0.612928247 -s 2 -d 2 -p cbr -e 532 -c 2 -a 0 -i 32 -k AGT
+ -t 0.612992000 -s 5 -d -1 -p cbr -e 512 -c 2 -a 0 -i 52 -k AGT 
- -t 0.612992000 -s 5 -d -1 -p cbr -e 512 -c 2 -a 0 -i 52 -k AGT
h -t 0.612992000 -s 5 -d -1 -p cbr -e 512 -c 2 -a 0 -i 52 -k AGT
+ -t 0.612992000 -s 5 -d 2 -p cbr -e 532 -c 2 -a 0 -i 52 -k RTR 
- -t 0.612992000 -s 5 -d 2 -p cbr -e 532 -c 2 -a 0 -i 52 -k RTR
h -t 0.612992000 -s 5 -d 2 -p cbr -e 532 -c 2 -a 0 -i 52 -k RTR
+ -t 0.617088000 -s 5 -d -1 -p cbr -e 512 -c 2 -a 0 -i 53 -k AGT 
- -t 0.617088000 -s 5 -d -1 -p cbr -e 512 -c 2 -a 0 -i 53 -k AGT
h -t 0.617088000 -s 5 -d -1 -p cbr -e 512 -c 2 -a 0 -i 53 -k AGT